<?xml version="1.0"?>
<VTKFile type="ImageData" version="0.1" byte_order="LittleEndian">
  <ImageData WholeExtent="0 255 0 255 0 0" Origin="0 0 0" Spacing="1 1 1">
  <Piece Extent="0 255 0 255 0 0">
    <PointData>
      <DataArray type="Float32" Name="scalar_data" format="ascii" >0 0 0 0 0 0 0 0 0 0 0 0 0 0 0 0 0 0 0 0 0 0 0 0 0 0 0 0 0 0 0 0 0 0 0 0 0 0 0 0 0 0 0 0 0 0 0 0 0 0 0 0 0 0 0 0 0 0 0 0 0 0 0 0 0 0 0 0 0 0 0 0 0 0 0 0 0 0 0 0 0 0 0 0 0 0 0 0 0 0 0 0 0 0 0 0 0 0 0 0 0 0 0 0 0 0 0 0 0 0 0 0 0 0 0 0 0 0 0 0 0 0 0 0 0 0 0 0 0 0 0 0 0 0 0 0 0 0 0 0 0 0 0 0 0 0 0 0 0 0 0 0 0 0 0 0 0 0 0 0 0 0 0 0 0 0 0 0 0 0 0 0 0 0 0 0 0 0 0 0 0 0 0 0 0 0 0 0 0 0 0 0 0 0 0 0 0 0 0 0 0 0 0 0 0 0 0 0 0 0 0 0 0 0 0 0 0 0 0 0 0 0 0 0 0 0 0 0 0 0 0 0 0 0 0 0 0 0 0 0 0 0 0 0 0 0 0 0 0 0 0 0 0 0 0 0 
0 1.53236e-21 3.80135e-21 7.86265e-21 1.55323e-20 3.01134e-20 5.76623e-20 1.09218e-19 2.04706e-19 3.79696e-19 6.96979e-19 1.26615e-18 2.2763e-18 4.05e-18 7.13118e-18 1.24265e-17 2.14298e-17 3.65737e-17 6.17738e-17 1.03258e-16 1.70817e-16 2.79657e-16 4.5312e-16 7.266e-16 1.15312e-15 1.81116e-15 2.81544e-15 4.33159e-15 6.59575e-15 9.94044e-15 1.48278e-14 2.18921e-14 3.19921e-14 4.62759e-14 6.62572e-14 9.39049e-14 1.31744e-13 1.8297e-13 2.5156e-13 3.42403e-13 4.61406e-13 6.15596e-13 8.132e-13 1.06367e-12 1.37769e-12 1.76708e-12 2.24464e-12 2.82393e-12 3.51892e-12 4.3436e-12 5.31145e-12 6.43486e-12 7.72454e-12 9.18888e-12 1.08333e-11 1.26596e-11 1.46657e-11 1.68451e-11 1.91867e-11 2.16751e-11 2.42903e-11 2.70087e-11 2.98031e-11 3.26443e-11 3.55012e-11 3.83424e-11 4.11369e-11 4.38552e-11 4.64705e-11 4.89588e-11 5.13005e-11 5.34799e-11 5.5486e-11 5.73123e-11 5.89567e-11 6.0421e-11 6.17107e-11 6.28341e-11 6.3802e-11 6.46266e-11 6.53216e-11 6.59009e-11 6.63785e-11 6.67679e-11 6.70819e-11 6.73324e-11 6.753e-11 6.76842e-11 6.78032e-11 6.7894e-11 6.79626e-11 6.80138e-11 6.80516e-11 6.80793e-11 6.80993e-11 6.81136e-11 6.81237e-11 6.81307e-11 6.81356e-11 6.8139e-11 6.81412e-11 6.81427e-11 6.81437e-11 6.81444e-11 6.81448e-11 6.81451e-11 6.81453e-11 6.81454e-11 6.81455e-11 6.81455e-11 6.81455e-11 6.81455e-11 6.81455e-11 6.81456e-11 6.81456e-11 6.81456e-11 6.81456e-11 6.81456e-11 6.81456e-11 6.81456e-11 6.81456e-11 6.81456e-11 6.81456e-11 6.81456e-11 6.81456e-11 6.81456e-11 6.81456e-11 6.81456e-11 6.81456e-11 6.81456e-11 6.81456e-11 6.81456e-11 6.81456e-11 6.81456e-11 6.81456e-11 6.81456e-11 6.81456e-11 6.81456e-11 6.81456e-11 6.81456e-11 6.81456e-11 6.81456e-11 6.81456e-11 6.81455e-11 6.81455e-11 6.81455e-11 6.81455e-11 6.81455e-11 6.81454e-11 6.81453e-11 6.81451e-11 6.81448e-11 6.81444e-11 6.81437e-11 6.81427e-11 6.81412e-11 6.8139e-11 6.81356e-11 6.81307e-11 6.81237e-11 6.81136e-11 6.80993e-11 6.80793e-11 6.80516e-11 6.80138e-11 6.79626e-11 6.7894e-11 6.78032e-11 6.76842e-11 6.753e-11 6.73324e-11 6.70819e-11 6.67679e-11 6.63785e-11 6.59009e-11 6.53216e-11 6.46266e-11 6.3802e-11 6.28341e-11 6.17107e-11 6.0421e-11 5.89567e-11 5.73123e-11 5.5486e-11 5.34799e-11 5.13005e-11 4.89588e-11 4.64705e-11 4.38552e-11 4.11369e-11 3.83424e-11 3.55012e-11 3.26443e-11 2.98031e-11 2.70087e-11 2.42903e-11 2.16751e-11 1.91867e-11 1.68451e-11 1.46657e-11 1.26596e-11 1.08333e-11 9.18888e-12 7.72454e-12 6.43486e-12 5.31145e-12 4.3436e-12 3.51892e-12 2.82393e-12 2.24464e-12 1.76708e-12 1.37769e-12 1.06367e-12 8.132e-13 6.15596e-13 4.61406e-13 3.42403e-13 2.5156e-13 1.8297e-13 1.31744e-13 9.39049e-14 6.62572e-14 4.62759e-14 3.19921e-14 2.18921e-14 1.48278e-14 9.94044e-15 6.59575e-15 4.33159e-15 2.81544e-15 1.81116e-15 1.15312e-15 7.266e-16 4.5312e-16 2.79657e-16 1.70817e-16 1.03258e-16 6.17738e-17 3.65737e-17 2.14298e-17 1.24265e-17 7.13118e-18 4.05e-18 2.2763e-18 1.26615e-18 6.96979e-19 3.79696e-19 2.04706e-19 1.09218e-19 5.76623e-20 3.01134e-20 1.55323e-20 7.86265e-21 3.80135e-21 1.53236e-21 0 
0 3.80135e-21 9.4263e-21 1.94865e-20 3.84714e-20 7.45401e-20 1.42643e-19 2.70015e-19 5.0578e-19 9.37584e-19 1.72005e-18 3.12291e-18 5.61129e-18 9.97818e-18 1.756e-17 3.05834e-17 5.27147e-17 8.9922e-17 1.51806e-16 2.53629e-16 4.19375e-16 6.86278e-16 1.11146e-15 1.7815e-15 2.82606e-15 4.43695e-15 6.89443e-15 1.0603e-14 1.61391e-14 2.43142e-14 3.62557e-14 5.35098e-14 7.81705e-14 1.13035e-13 1.6179e-13 2.29231e-13 3.21506e-13 4.46386e-13 6.13556e-13 8.34899e-13 1.12478e-12 1.50029e-12 1.98141e-12 2.59112e-12 3.35535e-12 4.30281e-12 5.46459e-12 6.87359e-12 8.56374e-12 1.05689e-11 1.29219e-11 1.56527e-11 1.87872e-11 2.23458e-11 2.63416e-11 3.07789e-11 3.56527e-11 4.09471e-11 4.66352e-11 5.26794e-11 5.90314e-11 6.56337e-11 7.24206e-11 7.93209e-11 8.62594e-11 9.31597e-11 9.99467e-11 1.06549e-10 1.12901e-10 1.18945e-10 1.24633e-10 1.29928e-10 1.34801e-10 1.39239e-10 1.43235e-10 1.46793e-10 1.49928e-10 1.52658e-10 1.55011e-10 1.57017e-10 1.58707e-10 1.60116e-10 1.61278e-10 1.62225e-10 1.62989e-10 1.63599e-10 1.6408e-10 1.64456e-10 1.64745e-10 1.64967e-10 1.65134e-10 1.65259e-10 1.65351e-10 1.65419e-10 1.65467e-10 1.65502e-10 1.65527e-10 1.65544e-10 1.65556e-10 1.65564e-10 1.6557e-10 1.65573e-10 1.65576e-10 1.65578e-10 1.65579e-10 1.65579e-10 1.6558e-10 1.6558e-10 1.6558e-10 1.6558e-10 1.6558e-10 1.6558e-10 1.6558e-10 1.6558e-10 1.6558e-10 1.6558e-10 1.6558e-10 1.6558e-10 1.6558e-10 1.6558e-10 1.6558e-10 1.6558e-10 1.6558e-10 1.6558e-10 1.6558e-10 1.6558e-10 1.6558e-10 1.6558e-10 1.6558e-10 1.6558e-10 1.6558e-10 1.6558e-10 1.6558e-10 1.6558e-10 1.6558e-10 1.6558e-10 1.6558e-10 1.6558e-10 1.6558e-10 1.6558e-10 1.6558e-10 1.6558e-10 1.6558e-10 1.6558e-10 1.6558e-10 1.6558e-10 1.6558e-10 1.6558e-10 1.6558e-10 1.6558e-10 1.65579e-10 1.65579e-10 1.65578e-10 1.65576e-10 1.65573e-10 1.6557e-10 1.65564e-10 1.65556e-10 1.65544e-10 1.65527e-10 1.65502e-10 1.65467e-10 1.65419e-10 1.65351e-10 1.65259e-10 1.65134e-10 1.64967e-10 1.64745e-10 1.64456e-10 1.6408e-10 1.63599e-10 1.62989e-10 1.62225e-10 1.61278e-10 1.60116e-10 1.58707e-10 1.57017e-10 1.55011e-10 1.52658e-10 1.49928e-10 1.46793e-10 1.43235e-10 1.39239e-10 1.34801e-10 1.29928e-10 1.24633e-10 1.18945e-10 1.12901e-10 1.06549e-10 9.99467e-11 9.31597e-11 8.62594e-11 7.93209e-11 7.24206e-11 6.56337e-11 5.90314e-11 5.26794e-11 4.66352e-11 4.09471e-11 3.56527e-11 3.07789e-11 2.63416e-11 2.23458e-11 1.87872e-11 1.56527e-11 1.29219e-11 1.05689e-11 8.56374e-12 6.87359e-12 5.46459e-12 4.30281e-12 3.35535e-12 2.59112e-12 1.98141e-12 1.50029e-12 1.12478e-12 8.34899e-13 6.13556e-13 4.46386e-13 3.21506e-13 2.29231e-13 1.6179e-13 1.13035e-13 7.81705e-14 5.35098e-14 3.62557e-14 2.43142e-14 1.61391e-14 1.0603e-14 6.89443e-15 4.43695e-15 2.82606e-15 1.7815e-15 1.11146e-15 6.86278e-16 4.19375e-16 2.53629e-16 1.51806e-16 8.9922e-17 5.27147e-17 3.05834e-17 1.756e-17 9.97818e-18 5.61129e-18 3.12291e-18 1.72005e-18 9.37584e-19 5.0578e-19 2.70015e-19 1.42643e-19 7.45401e-20 3.84714e-20 1.94865e-20 9.4263e-21 3.80135e-21 0 
0 7.86265e-21 1.94865e-20 4.02535e-20 7.94049e-20 1.5372e-19 2.93915e-19 5.55899e-19 1.04043e-18 1.92712e-18 3.53262e-18 6.40879e-18 1.15066e-17 2.04462e-17 3.59558e-17 6.25774e-17 1.07785e-16 1.83736e-16 3.09973e-16 5.17548e-16 8.55215e-16 1.39862e-15 2.26375e-15 3.62628e-15 5.74915e-15 9.0211e-15 1.40098e-14 2.15342e-14 3.27607e-14 4.93301e-14 7.35211e-14 1.08458e-13 1.58368e-13 2.28897e-13 3.27484e-13 4.63797e-13 6.50228e-13 9.02435e-13 1.23992e-12 1.68661e-12 2.27141e-12 3.02869e-12 3.99865e-12 5.22746e-12 6.76726e-12 8.67569e-12 1.10152e-11 1.38518e-11 1.72537e-11 2.12888e-11 2.60226e-11 3.15156e-11 3.78196e-11 4.49752e-11 5.30086e-11 6.19287e-11 7.17249e-11 8.23653e-11 9.37962e-11 1.05941e-10 1.18705e-10 1.3197e-10 1.45606e-10 1.59469e-10 1.73409e-10 1.87272e-10 2.00908e-10 2.14173e-10 2.26936e-10 2.39081e-10 2.50512e-10 2.61152e-10 2.70949e-10 2.79869e-10 2.87902e-10 2.95058e-10 3.01362e-10 3.06855e-10 3.11589e-10 3.15624e-10 3.19026e-10 3.21862e-10 3.24202e-10 3.2611e-10 3.2765e-10 3.28879e-10 3.29849e-10 3.30606e-10 3.31191e-10 3.31637e-10 3.31975e-10 3.32227e-10 3.32414e-10 3.3255e-10 3.32648e-10 3.32719e-10 3.32769e-10 3.32804e-10 3.32828e-10 3.32845e-10 3.32856e-10 3.32863e-10 3.32868e-10 3.32872e-10 3.32874e-10 3.32875e-10 3.32876e-10 3.32877e-10 3.32877e-10 3.32877e-10 3.32877e-10 3.32877e-10 3.32877e-10 3.32877e-10 3.32877e-10 3.32877e-10 3.32877e-10 3.32877e-10 3.32877e-10 3.32877e-10 3.32877e-10 3.32877e-10 3.32877e-10 3.32877e-10 3.32877e-10 3.32877e-10 3.32877e-10 3.32877e-10 3.32877e-10 3.32877e-10 3.32877e-10 3.32877e-10 3.32877e-10 3.32877e-10 3.32877e-10 3.32877e-10 3.32877e-10 3.32877e-10 3.32877e-10 3.32877e-10 3.32877e-10 3.32877e-10 3.32877e-10 3.32877e-10 3.32877e-10 3.32877e-10 3.32877e-10 3.32877e-10 3.32877e-10 3.32876e-10 3.32875e-10 3.32874e-10 3.32872e-10 3.32868e-10 3.32863e-10 3.32856e-10 3.32845e-10 3.32828e-10 3.32804e-10 3.32769e-10 3.32719e-10 3.32648e-10 3.3255e-10 3.32414e-10 3.32227e-10 3.31975e-10 3.31637e-10 3.31191e-10 3.30606e-10 3.29849e-10 3.28879e-10 3.2765e-10 3.2611e-10 3.24202e-10 3.21862e-10 3.19026e-10 3.15624e-10 3.11589e-10 3.06855e-10 3.01362e-10 2.95058e-10 2.87902e-10 2.79869e-10 2.70949e-10 2.61152e-10 2.50512e-10 2.39081e-10 2.26936e-10 2.14173e-10 2.00908e-10 1.87272e-10 1.73409e-10 1.59469e-10 1.45606e-10 1.3197e-10 1.18705e-10 1.05941e-10 9.37962e-11 8.23653e-11 7.17249e-11 6.19287e-11 5.30086e-11 4.49752e-11 3.78196e-11 3.15156e-11 2.60226e-11 2.12888e-11 1.72537e-11 1.38518e-11 1.10152e-11 8.67569e-12 6.76726e-12 5.22746e-12 3.99865e-12 3.02869e-12 2.27141e-12 1.68661e-12 1.23992e-12 9.02435e-13 6.50228e-13 4.63797e-13 3.27484e-13 2.28897e-13 1.58368e-13 1.08458e-13 7.35211e-14 4.93301e-14 3.27607e-14 2.15342e-14 1.40098e-14 9.0211e-15 5.74915e-15 3.62628e-15 2.26375e-15 1.39862e-15 8.55215e-16 5.17548e-16 3.09973e-16 1.83736e-16 1.07785e-16 6.25774e-17 3.59558e-17 2.04462e-17 1.15066e-17 6.40879e-18 3.53262e-18 1.92712e-18 1.04043e-18 5.55899e-19 2.93915e-19 1.5372e-19 7.94049e-20 4.02535e-20 1.94865e-20 7.86265e-21 0 
0 1.55323e-20 3.84714e-20 7.9405e-20 1.56491e-19 3.02664e-19 5.78154e-19 1.09248e-18 2.04282e-18 3.78038e-18 6.92373e-18 1.255e-17 2.25137e-17 3.99713e-17 7.02344e-17 1.22138e-16 2.10209e-16 3.58059e-16 6.03613e-16 1.00708e-15 1.66295e-15 2.71768e-15 4.39571e-15 7.03675e-15 1.11489e-14 1.74828e-14 2.71341e-14 4.16821e-14 6.33751e-14 9.53738e-14 1.42065e-13 2.09461e-13 3.05691e-13 4.41607e-13 6.31498e-13 8.9393e-13 1.25268e-12 1.7378e-12 2.38667e-12 3.24514e-12 4.36861e-12 5.82287e-12 7.68488e-12 1.0043e-11 1.29969e-11 1.66569e-11 2.11422e-11 2.65791e-11 3.30975e-11 4.08275e-11 4.98939e-11 6.04119e-11 7.24804e-11 8.61768e-11 1.01551e-10 1.18619e-10 1.37361e-10 1.57716e-10 1.7958e-10 2.02809e-10 2.27218e-10 2.52586e-10 2.78661e-10 3.05171e-10 3.31827e-10 3.58336e-10 3.84412e-10 4.09779e-10 4.34188e-10 4.57417e-10 4.79282e-10 4.99636e-10 5.18378e-10 5.35447e-10 5.50821e-10 5.64517e-10 5.76586e-10 5.87103e-10 5.9617e-10 6.039e-10 6.10418e-10 6.15855e-10 6.20341e-10 6.24001e-10 6.26954e-10 6.29312e-10 6.31175e-10 6.32629e-10 6.33752e-10 6.34611e-10 6.3526e-10 6.35745e-10 6.36104e-10 6.36366e-10 6.36556e-10 6.36692e-10 6.36788e-10 6.36855e-10 6.36902e-10 6.36934e-10 6.36956e-10 6.3697e-10 6.3698e-10 6.36986e-10 6.3699e-10 6.36993e-10 6.36995e-10 6.36996e-10 6.36996e-10 6.36997e-10 6.36997e-10 6.36997e-10 6.36997e-10 6.36997e-10 6.36997e-10 6.36997e-10 6.36997e-10 6.36997e-10 6.36997e-10 6.36997e-10 6.36997e-10 6.36997e-10 6.36997e-10 6.36997e-10 6.36997e-10 6.36997e-10 6.36997e-10 6.36997e-10 6.36997e-10 6.36997e-10 6.36997e-10 6.36997e-10 6.36997e-10 6.36997e-10 6.36997e-10 6.36997e-10 6.36997e-10 6.36997e-10 6.36997e-10 6.36997e-10 6.36997e-10 6.36997e-10 6.36997e-10 6.36997e-10 6.36997e-10 6.36997e-10 6.36997e-10 6.36996e-10 6.36996e-10 6.36995e-10 6.36993e-10 6.3699e-10 6.36986e-10 6.3698e-10 6.3697e-10 6.36956e-10 6.36934e-10 6.36902e-10 6.36855e-10 6.36788e-10 6.36692e-10 6.36556e-10 6.36366e-10 6.36104e-10 6.35745e-10 6.3526e-10 6.34611e-10 6.33752e-10 6.32629e-10 6.31175e-10 6.29312e-10 6.26954e-10 6.24001e-10 6.20341e-10 6.15855e-10 6.10418e-10 6.039e-10 5.9617e-10 5.87103e-10 5.76586e-10 5.64517e-10 5.50821e-10 5.35447e-10 5.18378e-10 4.99636e-10 4.79282e-10 4.57417e-10 4.34188e-10 4.09779e-10 3.84412e-10 3.58336e-10 3.31827e-10 3.05171e-10 2.78661e-10 2.52586e-10 2.27218e-10 2.02809e-10 1.7958e-10 1.57716e-10 1.37361e-10 1.18619e-10 1.01551e-10 8.61768e-11 7.24804e-11 6.04119e-11 4.98939e-11 4.08275e-11 3.30975e-11 2.65791e-11 2.11422e-11 1.66569e-11 1.29969e-11 1.0043e-11 7.68488e-12 5.82287e-12 4.36861e-12 3.24514e-12 2.38667e-12 1.7378e-12 1.25268e-12 8.9393e-13 6.31498e-13 4.41607e-13 3.05691e-13 2.09461e-13 1.42065e-13 9.53738e-14 6.33751e-14 4.16821e-14 2.71341e-14 1.74828e-14 1.11489e-14 7.03675e-15 4.39571e-15 2.71768e-15 1.66295e-15 1.00708e-15 6.03613e-16 3.58059e-16 2.10209e-16 1.22138e-16 7.02344e-17 3.99713e-17 2.25137e-17 1.255e-17 6.92373e-18 3.78038e-18 2.04282e-18 1.09248e-18 5.78154e-19 3.02664e-19 1.56491e-19 7.9405e-20 3.84714e-20 1.55323e-20 0 
0 3.01134e-20 7.45401e-20 1.5372e-19 3.02664e-19 5.84802e-19 1.11601e-18 2.10679e-18 3.93577e-18 7.27669e-18 1.3315e-17 2.41134e-17 4.32197e-17 7.66674e-17 1.34601e-16 2.33878e-16 4.02199e-16 6.84541e-16 1.1531e-15 1.92241e-15 3.17204e-15 5.18018e-15 8.37274e-15 1.3394e-14 2.1207e-14 3.32333e-14 5.15466e-14 7.9134e-14 1.20246e-13 1.80852e-13 2.69237e-13 3.96741e-13 5.78699e-13 8.35561e-13 1.19425e-12 1.68971e-12 2.36671e-12 3.28174e-12 4.5051e-12 6.12297e-12 8.23935e-12 1.09778e-11 1.44828e-11 1.892e-11 2.44765e-11 3.13588e-11 3.97905e-11 5.00081e-11 6.22549e-11 7.6774e-11 9.37995e-11 1.13546e-10 1.36199e-10 1.61903e-10 1.9075e-10 2.22771e-10 2.57927e-10 2.96103e-10 3.37106e-10 3.80665e-10 4.26432e-10 4.73995e-10 5.22882e-10 5.72582e-10 6.22556e-10 6.72257e-10 7.21144e-10 7.68706e-10 8.14473e-10 8.58032e-10 8.99035e-10 9.37212e-10 9.72368e-10 1.00439e-09 1.03324e-09 1.05894e-09 1.08159e-09 1.10134e-09 1.11836e-09 1.13288e-09 1.14513e-09 1.15535e-09 1.16378e-09 1.17066e-09 1.17622e-09 1.18066e-09 1.18416e-09 1.1869e-09 1.18902e-09 1.19063e-09 1.19186e-09 1.19277e-09 1.19345e-09 1.19394e-09 1.1943e-09 1.19456e-09 1.19474e-09 1.19487e-09 1.19496e-09 1.19502e-09 1.19506e-09 1.19509e-09 1.19511e-09 1.19512e-09 1.19513e-09 1.19513e-09 1.19513e-09 1.19514e-09 1.19514e-09 1.19514e-09 1.19514e-09 1.19514e-09 1.19514e-09 1.19514e-09 1.19514e-09 1.19514e-09 1.19514e-09 1.19514e-09 1.19514e-09 1.19514e-09 1.19514e-09 1.19514e-09 1.19514e-09 1.19514e-09 1.19514e-09 1.19514e-09 1.19514e-09 1.19514e-09 1.19514e-09 1.19514e-09 1.19514e-09 1.19514e-09 1.19514e-09 1.19514e-09 1.19514e-09 1.19514e-09 1.19514e-09 1.19514e-09 1.19514e-09 1.19514e-09 1.19514e-09 1.19514e-09 1.19514e-09 1.19514e-09 1.19514e-09 1.19514e-09 1.19514e-09 1.19514e-09 1.19514e-09 1.19513e-09 1.19513e-09 1.19513e-09 1.19512e-09 1.19511e-09 1.19509e-09 1.19506e-09 1.19502e-09 1.19496e-09 1.19487e-09 1.19474e-09 1.19456e-09 1.1943e-09 1.19394e-09 1.19345e-09 1.19277e-09 1.19186e-09 1.19063e-09 1.18902e-09 1.1869e-09 1.18416e-09 1.18066e-09 1.17622e-09 1.17066e-09 1.16378e-09 1.15535e-09 1.14513e-09 1.13288e-09 1.11836e-09 1.10134e-09 1.08159e-09 1.05894e-09 1.03324e-09 1.00439e-09 9.72368e-10 9.37212e-10 8.99035e-10 8.58032e-10 8.14473e-10 7.68706e-10 7.21144e-10 6.72257e-10 6.22556e-10 5.72582e-10 5.22882e-10 4.73995e-10 4.26432e-10 3.80665e-10 3.37106e-10 2.96103e-10 2.57927e-10 2.22771e-10 1.9075e-10 1.61903e-10 1.36199e-10 1.13546e-10 9.37995e-11 7.6774e-11 6.22549e-11 5.00081e-11 3.97905e-11 3.13588e-11 2.44765e-11 1.892e-11 1.44828e-11 1.09778e-11 8.23935e-12 6.12297e-12 4.5051e-12 3.28174e-12 2.36671e-12 1.68971e-12 1.19425e-12 8.35561e-13 5.78699e-13 3.96741e-13 2.69237e-13 1.80852e-13 1.20246e-13 7.9134e-14 5.15466e-14 3.32333e-14 2.1207e-14 1.3394e-14 8.37274e-15 5.18018e-15 3.17204e-15 1.92241e-15 1.1531e-15 6.84541e-16 4.02199e-16 2.33878e-16 1.34601e-16 7.66674e-17 4.32197e-17 2.41134e-17 1.3315e-17 7.27669e-18 3.93577e-18 2.10679e-18 1.11601e-18 5.84802e-19 3.02664e-19 1.5372e-19 7.45401e-20 3.01134e-20 0 
0 5.76623e-20 1.42643e-19 2.93915e-19 5.78154e-19 1.11601e-18 2.1277e-18 4.01279e-18 7.48937e-18 1.3834e-17 2.52908e-17 4.57606e-17 8.19474e-17 1.45242e-16 2.54779e-16 4.42333e-16 7.60063e-16 1.2926e-15 2.1757e-15 3.62451e-15 5.97612e-15 9.75241e-15 1.57517e-14 2.5181e-14 3.98426e-14 6.23962e-14 9.67179e-14 1.48388e-13 2.25342e-13 3.3872e-13 5.03968e-13 7.42223e-13 1.08204e-12 1.5615e-12 2.23069e-12 3.1546e-12 4.41642e-12 6.12112e-12 8.39923e-12 1.14107e-11 1.53485e-11 2.04418e-11 2.69582e-11 3.52049e-11 4.55282e-11 5.83105e-11 7.39658e-11 9.29314e-11 1.15657e-10 1.42593e-10 1.7417e-10 2.10787e-10 2.52784e-10 3.00428e-10 3.53888e-10 4.13221e-10 4.78354e-10 5.49074e-10 6.25023e-10 7.05697e-10 7.90455e-10 8.78533e-10 9.69061e-10 1.06109e-09 1.15363e-09 1.24566e-09 1.33619e-09 1.42426e-09 1.50902e-09 1.5897e-09 1.66565e-09 1.73637e-09 1.8015e-09 1.86083e-09 1.91429e-09 1.96194e-09 2.00393e-09 2.04055e-09 2.07213e-09 2.09906e-09 2.12179e-09 2.14075e-09 2.15641e-09 2.16919e-09 2.17952e-09 2.18776e-09 2.19428e-09 2.19937e-09 2.20331e-09 2.20632e-09 2.2086e-09 2.2103e-09 2.21157e-09 2.21249e-09 2.21316e-09 2.21364e-09 2.21398e-09 2.21422e-09 2.21438e-09 2.21449e-09 2.21457e-09 2.21462e-09 2.21466e-09 2.21468e-09 2.2147e-09 2.2147e-09 2.21471e-09 2.21471e-09 2.21472e-09 2.21472e-09 2.21472e-09 2.21472e-09 2.21472e-09 2.21472e-09 2.21472e-09 2.21472e-09 2.21472e-09 2.21472e-09 2.21472e-09 2.21472e-09 2.21472e-09 2.21472e-09 2.21472e-09 2.21472e-09 2.21472e-09 2.21472e-09 2.21472e-09 2.21472e-09 2.21472e-09 2.21472e-09 2.21472e-09 2.21472e-09 2.21472e-09 2.21472e-09 2.21472e-09 2.21472e-09 2.21472e-09 2.21472e-09 2.21472e-09 2.21472e-09 2.21472e-09 2.21472e-09 2.21472e-09 2.21472e-09 2.21472e-09 2.21472e-09 2.21472e-09 2.21472e-09 2.21471e-09 2.21471e-09 2.2147e-09 2.2147e-09 2.21468e-09 2.21466e-09 2.21462e-09 2.21457e-09 2.21449e-09 2.21438e-09 2.21422e-09 2.21398e-09 2.21364e-09 2.21316e-09 2.21249e-09 2.21157e-09 2.2103e-09 2.2086e-09 2.20632e-09 2.20331e-09 2.19937e-09 2.19428e-09 2.18776e-09 2.17952e-09 2.16919e-09 2.15641e-09 2.14075e-09 2.12179e-09 2.09906e-09 2.07213e-09 2.04055e-09 2.00393e-09 1.96194e-09 1.91429e-09 1.86083e-09 1.8015e-09 1.73637e-09 1.66565e-09 1.5897e-09 1.50902e-09 1.42426e-09 1.33619e-09 1.24566e-09 1.15363e-09 1.06109e-09 9.69061e-10 8.78533e-10 7.90455e-10 7.05697e-10 6.25023e-10 5.49074e-10 4.78354e-10 4.13221e-10 3.53888e-10 3.00428e-10 2.52784e-10 2.10787e-10 1.7417e-10 1.42593e-10 1.15657e-10 9.29314e-11 7.39658e-11 5.83105e-11 4.55282e-11 3.52049e-11 2.69582e-11 2.04418e-11 1.53485e-11 1.14107e-11 8.39923e-12 6.12112e-12 4.41642e-12 3.1546e-12 2.23069e-12 1.5615e-12 1.08204e-12 7.42223e-13 5.03968e-13 3.3872e-13 2.25342e-13 1.48388e-13 9.67179e-14 6.23962e-14 3.98426e-14 2.5181e-14 1.57517e-14 9.75241e-15 5.97612e-15 3.62451e-15 2.1757e-15 1.2926e-15 7.60063e-16 4.42333e-16 2.54779e-16 1.45242e-16 8.19474e-17 4.57606e-17 2.52908e-17 1.3834e-17 7.48937e-18 4.01279e-18 2.1277e-18 1.11601e-18 5.78154e-19 2.93915e-19 1.42643e-19 5.76623e-20 0 
0 1.09218e-19 2.70015e-19 5.55899e-19 1.09248e-18 2.10679e-18 4.01279e-18 7.56088e-18 1.40983e-17 2.6018e-17 4.75225e-17 8.59106e-17 1.53715e-16 2.7221e-16 4.77107e-16 8.27653e-16 1.42103e-15 2.41479e-15 4.06145e-15 6.76095e-15 1.11394e-14 1.81653e-14 2.93196e-14 4.68388e-14 7.40615e-14 1.1591e-13 1.79554e-13 2.7531e-13 4.17834e-13 6.27697e-13 9.33395e-13 1.37391e-12 2.00187e-12 2.88742e-12 4.12277e-12 5.82752e-12 8.15466e-12 1.12972e-11 1.54949e-11 2.10416e-11 2.82915e-11 3.76652e-11 4.96535e-11 6.48198e-11 8.37986e-11 1.07291e-10 1.36054e-10 1.70889e-10 2.1262e-10 2.62068e-10 3.20024e-10 3.87213e-10 4.6426e-10 5.51649e-10 6.4969e-10 7.58483e-10 8.77895e-10 1.00753e-09 1.14674e-09 1.2946e-09 1.44993e-09 1.61134e-09 1.77722e-09 1.94586e-09 2.11542e-09 2.28406e-09 2.44995e-09 2.61135e-09 2.76668e-09 2.91454e-09 3.05375e-09 3.18339e-09 3.3028e-09 3.41159e-09 3.50964e-09 3.59702e-09 3.67407e-09 3.74126e-09 3.79922e-09 3.84866e-09 3.89039e-09 3.92523e-09 3.95399e-09 3.97749e-09 3.99646e-09 4.01163e-09 4.02362e-09 4.03299e-09 4.04024e-09 4.04579e-09 4.04999e-09 4.05313e-09 4.05546e-09 4.05716e-09 4.0584e-09 4.05928e-09 4.05991e-09 4.06035e-09 4.06066e-09 4.06087e-09 4.06101e-09 4.0611e-09 4.06117e-09 4.06121e-09 4.06124e-09 4.06126e-09 4.06127e-09 4.06127e-09 4.06128e-09 4.06128e-09 4.06128e-09 4.06128e-09 4.06128e-09 4.06128e-09 4.06128e-09 4.06128e-09 4.06128e-09 4.06128e-09 4.06128e-09 4.06128e-09 4.06128e-09 4.06128e-09 4.06128e-09 4.06128e-09 4.06128e-09 4.06128e-09 4.06128e-09 4.06128e-09 4.06128e-09 4.06128e-09 4.06128e-09 4.06128e-09 4.06128e-09 4.06128e-09 4.06128e-09 4.06128e-09 4.06128e-09 4.06128e-09 4.06128e-09 4.06128e-09 4.06128e-09 4.06128e-09 4.06128e-09 4.06128e-09 4.06128e-09 4.06128e-09 4.06128e-09 4.06128e-09 4.06127e-09 4.06127e-09 4.06126e-09 4.06124e-09 4.06121e-09 4.06117e-09 4.0611e-09 4.06101e-09 4.06087e-09 4.06066e-09 4.06035e-09 4.05991e-09 4.05928e-09 4.0584e-09 4.05716e-09 4.05546e-09 4.05313e-09 4.04999e-09 4.04579e-09 4.04024e-09 4.03299e-09 4.02362e-09 4.01163e-09 3.99646e-09 3.97749e-09 3.95399e-09 3.92523e-09 3.89039e-09 3.84866e-09 3.79922e-09 3.74126e-09 3.67407e-09 3.59702e-09 3.50964e-09 3.41159e-09 3.3028e-09 3.18339e-09 3.05375e-09 2.91454e-09 2.76668e-09 2.61135e-09 2.44995e-09 2.28406e-09 2.11542e-09 1.94586e-09 1.77722e-09 1.61134e-09 1.44993e-09 1.2946e-09 1.14674e-09 1.00753e-09 8.77895e-10 7.58483e-10 6.4969e-10 5.51649e-10 4.6426e-10 3.87213e-10 3.20024e-10 2.62068e-10 2.1262e-10 1.70889e-10 1.36054e-10 1.07291e-10 8.37986e-11 6.48198e-11 4.96535e-11 3.76652e-11 2.82915e-11 2.10416e-11 1.54949e-11 1.12972e-11 8.15466e-12 5.82752e-12 4.12277e-12 2.88742e-12 2.00187e-12 1.37391e-12 9.33395e-13 6.27697e-13 4.17834e-13 2.7531e-13 1.79554e-13 1.1591e-13 7.40615e-14 4.68388e-14 2.93196e-14 1.81653e-14 1.11394e-14 6.76095e-15 4.06145e-15 2.41479e-15 1.42103e-15 8.27653e-16 4.77107e-16 2.7221e-16 1.53715e-16 8.59106e-17 4.75225e-17 2.6018e-17 1.40983e-17 7.56088e-18 4.01279e-18 2.10679e-18 1.09248e-18 5.55899e-19 2.70015e-19 1.09218e-19 0 
0 2.04706e-19 5.0578e-19 1.04043e-18 2.04282e-18 3.93577e-18 7.48937e-18 1.40983e-17 2.62644e-17 4.84265e-17 8.83742e-17 1.59623e-16 2.85362e-16 5.04922e-16 8.84262e-16 1.53273e-15 2.62954e-15 4.46503e-15 7.50411e-15 1.24826e-14 2.05517e-14 3.34908e-14 5.40183e-14 8.6238e-14 1.3627e-13 2.13134e-13 3.29957e-13 5.05616e-13 7.66915e-13 1.15145e-12 1.71127e-12 2.51754e-12 3.66628e-12 5.28541e-12 7.54298e-12 1.06569e-11 1.49057e-11 2.06406e-11 2.82979e-11 3.84118e-11 5.16261e-11 6.87048e-11 9.05394e-11 1.18152e-10 1.52695e-10 1.95439e-10 2.47759e-10 3.11104e-10 3.86969e-10 4.7684e-10 5.8215e-10 7.04211e-10 8.44151e-10 1.00285e-09 1.18085e-09 1.37835e-09 1.5951e-09 1.83038e-09 2.08301e-09 2.3513e-09 2.63314e-09 2.92597e-09 3.22693e-09 3.53287e-09 3.84049e-09 4.14643e-09 4.44739e-09 4.74023e-09 5.02206e-09 5.29036e-09 5.54298e-09 5.77826e-09 5.99501e-09 6.19251e-09 6.37052e-09 6.52921e-09 6.66915e-09 6.79121e-09 6.89652e-09 6.9864e-09 7.06226e-09 7.12561e-09 7.17792e-09 7.22067e-09 7.25521e-09 7.28282e-09 7.30466e-09 7.32174e-09 7.33495e-09 7.34507e-09 7.35272e-09 7.35846e-09 7.36271e-09 7.36582e-09 7.36808e-09 7.3697e-09 7.37085e-09 7.37165e-09 7.37221e-09 7.3726e-09 7.37286e-09 7.37303e-09 7.37315e-09 7.37323e-09 7.37328e-09 7.37331e-09 7.37333e-09 7.37334e-09 7.37335e-09 7.37336e-09 7.37336e-09 7.37336e-09 7.37336e-09 7.37336e-09 7.37336e-09 7.37336e-09 7.37336e-09 7.37336e-09 7.37336e-09 7.37336e-09 7.37336e-09 7.37336e-09 7.37336e-09 7.37336e-09 7.37336e-09 7.37336e-09 7.37336e-09 7.37336e-09 7.37336e-09 7.37336e-09 7.37336e-09 7.37336e-09 7.37336e-09 7.37336e-09 7.37336e-09 7.37336e-09 7.37336e-09 7.37336e-09 7.37336e-09 7.37336e-09 7.37336e-09 7.37336e-09 7.37336e-09 7.37336e-09 7.37336e-09 7.37336e-09 7.37336e-09 7.37335e-09 7.37334e-09 7.37333e-09 7.37331e-09 7.37328e-09 7.37323e-09 7.37315e-09 7.37303e-09 7.37286e-09 7.3726e-09 7.37221e-09 7.37165e-09 7.37085e-09 7.3697e-09 7.36808e-09 7.36582e-09 7.36271e-09 7.35846e-09 7.35272e-09 7.34507e-09 7.33495e-09 7.32174e-09 7.30466e-09 7.28282e-09 7.25521e-09 7.22067e-09 7.17792e-09 7.12561e-09 7.06226e-09 6.9864e-09 6.89652e-09 6.79121e-09 6.66915e-09 6.52921e-09 6.37052e-09 6.19251e-09 5.99501e-09 5.77826e-09 5.54298e-09 5.29036e-09 5.02206e-09 4.74023e-09 4.44739e-09 4.14643e-09 3.84049e-09 3.53287e-09 3.22693e-09 2.92597e-09 2.63314e-09 2.3513e-09 2.08301e-09 1.83038e-09 1.5951e-09 1.37835e-09 1.18085e-09 1.00285e-09 8.44151e-10 7.04211e-10 5.8215e-10 4.7684e-10 3.86969e-10 3.11104e-10 2.47759e-10 1.95439e-10 1.52695e-10 1.18152e-10 9.05394e-11 6.87048e-11 5.16261e-11 3.84118e-11 2.82979e-11 2.06406e-11 1.49057e-11 1.06569e-11 7.54298e-12 5.28541e-12 3.66628e-12 2.51754e-12 1.71127e-12 1.15145e-12 7.66915e-13 5.05616e-13 3.29957e-13 2.13134e-13 1.3627e-13 8.6238e-14 5.40183e-14 3.34908e-14 2.05517e-14 1.24826e-14 7.50411e-15 4.46503e-15 2.62954e-15 1.53273e-15 8.84262e-16 5.04922e-16 2.85362e-16 1.59623e-16 8.83742e-17 4.84265e-17 2.62644e-17 1.40983e-17 7.48937e-18 3.93577e-18 2.04282e-18 1.04043e-18 5.0578e-19 2.04706e-19 0 
0 3.79696e-19 9.37584e-19 1.92712e-18 3.78038e-18 7.27669e-18 1.3834e-17 2.6018e-17 4.84265e-17 8.92104e-17 1.6266e-16 2.93551e-16 5.2435e-16 9.2703e-16 1.62219e-15 2.80961e-15 4.81644e-15 8.17227e-15 1.37245e-14 2.28134e-14 3.75341e-14 6.11228e-14 9.85205e-14 1.5718e-13 2.48211e-13 3.87973e-13 6.00262e-13 9.19275e-13 1.39354e-12 2.09109e-12 3.10605e-12 4.56705e-12 6.64756e-12 9.5785e-12 1.36632e-11 1.92946e-11 2.69749e-11 3.7337e-11 5.11669e-11 6.9426e-11 9.32732e-11 1.24083e-10 1.63458e-10 2.13236e-10 2.75486e-10 3.52492e-10 4.46721e-10 5.60776e-10 6.97336e-10 8.5907e-10 1.04854e-09 1.26811e-09 1.51978e-09 1.80513e-09 2.12516e-09 2.48017e-09 2.86973e-09 3.29255e-09 3.74649e-09 4.22854e-09 4.73489e-09 5.26097e-09 5.80163e-09 6.35122e-09 6.90382e-09 7.45341e-09 7.99406e-09 8.52014e-09 9.02649e-09 9.50854e-09 9.96248e-09 1.03853e-08 1.07749e-08 1.11299e-08 1.14499e-08 1.17353e-08 1.19869e-08 1.22065e-08 1.2396e-08 1.25577e-08 1.26943e-08 1.28083e-08 1.29025e-08 1.29795e-08 1.30418e-08 1.30916e-08 1.31309e-08 1.31618e-08 1.31856e-08 1.32039e-08 1.32177e-08 1.32281e-08 1.32357e-08 1.32414e-08 1.32455e-08 1.32484e-08 1.32505e-08 1.32519e-08 1.32529e-08 1.32536e-08 1.32541e-08 1.32544e-08 1.32546e-08 1.32548e-08 1.32549e-08 1.32549e-08 1.3255e-08 1.3255e-08 1.3255e-08 1.3255e-08 1.3255e-08 1.3255e-08 1.3255e-08 1.3255e-08 1.3255e-08 1.3255e-08 1.3255e-08 1.3255e-08 1.3255e-08 1.3255e-08 1.3255e-08 1.3255e-08 1.3255e-08 1.3255e-08 1.3255e-08 1.3255e-08 1.3255e-08 1.3255e-08 1.3255e-08 1.3255e-08 1.3255e-08 1.3255e-08 1.3255e-08 1.3255e-08 1.3255e-08 1.3255e-08 1.3255e-08 1.3255e-08 1.3255e-08 1.3255e-08 1.3255e-08 1.3255e-08 1.3255e-08 1.3255e-08 1.3255e-08 1.3255e-08 1.3255e-08 1.3255e-08 1.3255e-08 1.3255e-08 1.32549e-08 1.32549e-08 1.32548e-08 1.32546e-08 1.32544e-08 1.32541e-08 1.32536e-08 1.32529e-08 1.32519e-08 1.32505e-08 1.32484e-08 1.32455e-08 1.32414e-08 1.32357e-08 1.32281e-08 1.32177e-08 1.32039e-08 1.31856e-08 1.31618e-08 1.31309e-08 1.30916e-08 1.30418e-08 1.29795e-08 1.29025e-08 1.28083e-08 1.26943e-08 1.25577e-08 1.2396e-08 1.22065e-08 1.19869e-08 1.17353e-08 1.14499e-08 1.11299e-08 1.07749e-08 1.03853e-08 9.96248e-09 9.50854e-09 9.02649e-09 8.52014e-09 7.99406e-09 7.45341e-09 6.90382e-09 6.35122e-09 5.80163e-09 5.26097e-09 4.73489e-09 4.22854e-09 3.74649e-09 3.29255e-09 2.86973e-09 2.48017e-09 2.12516e-09 1.80513e-09 1.51978e-09 1.26811e-09 1.04854e-09 8.5907e-10 6.97336e-10 5.60776e-10 4.46721e-10 3.52492e-10 2.75486e-10 2.13236e-10 1.63458e-10 1.24083e-10 9.32732e-11 6.9426e-11 5.11669e-11 3.7337e-11 2.69749e-11 1.92946e-11 1.36632e-11 9.5785e-12 6.64756e-12 4.56705e-12 3.10605e-12 2.09109e-12 1.39354e-12 9.19275e-13 6.00262e-13 3.87973e-13 2.48211e-13 1.5718e-13 9.85205e-14 6.11228e-14 3.75341e-14 2.28134e-14 1.37245e-14 8.17227e-15 4.81644e-15 2.80961e-15 1.62219e-15 9.2703e-16 5.2435e-16 2.93551e-16 1.6266e-16 8.92104e-17 4.84265e-17 2.6018e-17 1.3834e-17 7.27669e-18 3.78038e-18 1.92712e-18 9.37584e-19 3.79696e-19 0 