<?xml version="1.0"?>
<VTKFile type="ImageData" version="0.1" byte_order="LittleEndian">
  <ImageData WholeExtent="0 255 0 255 0 0" Origin="0 0 0" Spacing="1 1 1">
  <Piece Extent="0 255 0 255 0 0">
    <PointData>
      <DataArray type="Float32" Name="scalar_data" format="ascii" >0 0 0 0 0 0 0 0 0 0 0 0 0 0 0 0 0 0 0 0 0 0 0 0 0 0 0 0 0 0 0 0 0 0 0 0 0 0 0 0 0 0 0 0 0 0 0 0 0 0 0 0 0 0 0 0 0 0 0 0 0 0 0 0 0 0 0 0 0 0 0 0 0 0 0 0 0 0 0 0 0 0 0 0 0 0 0 0 0 0 0 0 0 0 0 0 0 0 0 0 0 0 0 0 0 0 0 0 0 0 0 0 0 0 0 0 0 0 0 0 0 0 0 0 0 0 0 0 0 0 0 0 0 0 0 0 0 0 0 0 0 0 0 0 0 0 0 0 0 0 0 0 0 0 0 0 0 0 0 0 0 0 0 0 0 0 0 0 0 0 0 0 0 0 0 0 0 0 0 0 0 0 0 0 0 0 0 0 0 0 0 0 0 0 0 0 0 0 0 0 0 0 0 0 0 0 0 0 0 0 0 0 0 0 0 0 0 0 0 0 0 0 0 0 0 0 0 0 0 0 0 0 0 0 0 0 0 0 0 0 0 0 0 0 0 0 0 0 0 0 0 0 0 0 0 0 
0 9.08754e-24 2.38038e-23 5.29538e-23 1.13307e-22 2.38331e-22 4.94923e-22 1.01556e-21 2.0595e-21 4.12781e-21 8.17671e-21 1.60081e-20 3.09742e-20 5.92326e-20 1.11949e-19 2.0911e-19 3.86035e-19 7.04329e-19 1.27005e-18 2.26342e-18 3.98663e-18 6.9398e-18 1.19396e-17 2.03018e-17 3.41181e-17 5.66688e-17 9.30284e-17 1.5094e-16 2.42055e-16 3.83664e-16 6.01065e-16 9.30748e-16 1.42459e-15 2.1553e-15 3.22323e-15 4.76489e-15 6.96313e-15 1.00591e-14 1.43659e-14 2.02834e-14 2.83139e-14 3.90778e-14 5.33278e-14 7.19601e-14 9.60219e-14 1.26712e-13 1.65372e-13 2.13471e-13 2.72572e-13 3.44294e-13 4.30254e-13 5.32003e-13 6.50949e-13 7.88274e-13 9.44852e-13 1.12117e-12 1.31725e-12 1.5326e-12 1.76617e-12 2.01637e-12 2.28106e-12 2.55758e-12 2.84288e-12 3.13358e-12 3.4261e-12 3.7168e-12 4.0021e-12 4.27863e-12 4.54331e-12 4.79351e-12 5.02709e-12 5.24243e-12 5.43851e-12 5.61483e-12 5.77141e-12 5.90873e-12 6.02768e-12 6.12943e-12 6.21539e-12 6.28711e-12 6.34621e-12 6.39431e-12 6.43297e-12 6.46366e-12 6.48772e-12 6.50635e-12 6.5206e-12 6.53137e-12 6.5394e-12 6.54531e-12 6.54962e-12 6.55272e-12 6.55492e-12 6.55646e-12 6.55752e-12 6.55826e-12 6.55875e-12 6.55908e-12 6.5593e-12 6.55944e-12 6.55953e-12 6.55959e-12 6.55962e-12 6.55965e-12 6.55966e-12 6.55967e-12 6.55967e-12 6.55968e-12 6.55968e-12 6.55968e-12 6.55968e-12 6.55968e-12 6.55968e-12 6.55968e-12 6.55968e-12 6.55968e-12 6.55968e-12 6.55968e-12 6.55968e-12 6.55968e-12 6.55968e-12 6.55968e-12 6.55968e-12 6.55968e-12 6.55968e-12 6.55968e-12 6.55968e-12 6.55968e-12 6.55968e-12 6.55968e-12 6.55968e-12 6.55968e-12 6.55968e-12 6.55968e-12 6.55968e-12 6.55968e-12 6.55968e-12 6.55968e-12 6.55968e-12 6.55968e-12 6.55968e-12 6.55968e-12 6.55968e-12 6.55968e-12 6.55968e-12 6.55968e-12 6.55968e-12 6.55968e-12 6.55968e-12 6.55967e-12 6.55967e-12 6.55966e-12 6.55965e-12 6.55962e-12 6.55959e-12 6.55953e-12 6.55944e-12 6.5593e-12 6.55908e-12 6.55875e-12 6.55826e-12 6.55752e-12 6.55646e-12 6.55492e-12 6.55272e-12 6.54962e-12 6.54531e-12 6.5394e-12 6.53137e-12 6.5206e-12 6.50635e-12 6.48772e-12 6.46366e-12 6.43297e-12 6.39431e-12 6.34621e-12 6.28711e-12 6.21539e-12 6.12943e-12 6.02768e-12 5.90873e-12 5.77141e-12 5.61483e-12 5.43851e-12 5.24243e-12 5.02709e-12 4.79351e-12 4.54331e-12 4.27863e-12 4.0021e-12 3.7168e-12 3.4261e-12 3.13358e-12 2.84288e-12 2.55758e-12 2.28106e-12 2.01637e-12 1.76617e-12 1.5326e-12 1.31725e-12 1.12117e-12 9.44852e-13 7.88274e-13 6.50949e-13 5.32003e-13 4.30254e-13 3.44294e-13 2.72572e-13 2.13471e-13 1.65372e-13 1.26712e-13 9.60219e-14 7.19601e-14 5.33278e-14 3.90778e-14 2.83139e-14 2.02834e-14 1.43659e-14 1.00591e-14 6.96313e-15 4.76489e-15 3.22323e-15 2.1553e-15 1.42459e-15 9.30748e-16 6.01065e-16 3.83664e-16 2.42055e-16 1.5094e-16 9.30284e-17 5.66688e-17 3.41181e-17 2.03018e-17 1.19396e-17 6.9398e-18 3.98663e-18 2.26342e-18 1.27005e-18 7.04329e-19 3.86035e-19 2.0911e-19 1.11949e-19 5.92326e-20 3.09742e-20 1.60081e-20 8.17671e-21 4.12781e-21 2.0595e-21 1.01556e-21 4.94923e-22 2.38331e-22 1.13307e-22 5.29538e-23 2.38038e-23 9.08754e-24 0 
0 2.38038e-23 6.23094e-23 1.38491e-22 2.96052e-22 6.22118e-22 1.29067e-21 2.64593e-21 5.36085e-21 1.07349e-20 2.12459e-20 4.15584e-20 8.03435e-20 1.53515e-19 2.89904e-19 5.41082e-19 9.98107e-19 1.81968e-18 3.27881e-18 5.83907e-18 1.02772e-17 1.78778e-17 3.07371e-17 5.223e-17 8.77184e-17 1.45605e-16 2.38882e-16 3.87359e-16 6.20829e-16 9.83478e-16 1.53992e-15 2.3833e-15 3.64598e-15 5.51334e-15 8.24117e-15 1.21772e-14 1.77871e-14 2.56845e-14 3.6666e-14 5.17483e-14 7.22084e-14 9.96224e-14 1.35902e-13 1.83322e-13 2.44542e-13 3.22601e-13 4.20904e-13 5.43172e-13 6.9337e-13 8.75598e-13 1.09395e-12 1.35236e-12 1.65438e-12 2.003e-12 2.40044e-12 2.8479e-12 3.34546e-12 3.89185e-12 4.48443e-12 5.11913e-12 5.79052e-12 6.4919e-12 7.21552e-12 7.95282e-12 8.69474e-12 9.43205e-12 1.01557e-11 1.0857e-11 1.15284e-11 1.21631e-11 1.27557e-11 1.33021e-11 1.37997e-11 1.42471e-11 1.46446e-11 1.49932e-11 1.52952e-11 1.55536e-11 1.5772e-11 1.59542e-11 1.61044e-11 1.62267e-11 1.6325e-11 1.6403e-11 1.64642e-11 1.65117e-11 1.65479e-11 1.65754e-11 1.65958e-11 1.66109e-11 1.66219e-11 1.66298e-11 1.66354e-11 1.66393e-11 1.66421e-11 1.66439e-11 1.66452e-11 1.6646e-11 1.66466e-11 1.66469e-11 1.66472e-11 1.66473e-11 1.66474e-11 1.66475e-11 1.66475e-11 1.66475e-11 1.66475e-11 1.66476e-11 1.66476e-11 1.66476e-11 1.66476e-11 1.66476e-11 1.66476e-11 1.66476e-11 1.66476e-11 1.66476e-11 1.66476e-11 1.66476e-11 1.66476e-11 1.66476e-11 1.66476e-11 1.66476e-11 1.66476e-11 1.66476e-11 1.66476e-11 1.66476e-11 1.66476e-11 1.66476e-11 1.66476e-11 1.66476e-11 1.66476e-11 1.66476e-11 1.66476e-11 1.66476e-11 1.66476e-11 1.66476e-11 1.66476e-11 1.66476e-11 1.66476e-11 1.66476e-11 1.66476e-11 1.66476e-11 1.66476e-11 1.66476e-11 1.66476e-11 1.66476e-11 1.66476e-11 1.66476e-11 1.66476e-11 1.66475e-11 1.66475e-11 1.66475e-11 1.66475e-11 1.66474e-11 1.66473e-11 1.66472e-11 1.66469e-11 1.66466e-11 1.6646e-11 1.66452e-11 1.66439e-11 1.66421e-11 1.66393e-11 1.66354e-11 1.66298e-11 1.66219e-11 1.66109e-11 1.65958e-11 1.65754e-11 1.65479e-11 1.65117e-11 1.64642e-11 1.6403e-11 1.6325e-11 1.62267e-11 1.61044e-11 1.59542e-11 1.5772e-11 1.55536e-11 1.52952e-11 1.49932e-11 1.46446e-11 1.42471e-11 1.37997e-11 1.33021e-11 1.27557e-11 1.21631e-11 1.15284e-11 1.0857e-11 1.01557e-11 9.43205e-12 8.69474e-12 7.95282e-12 7.21552e-12 6.4919e-12 5.79052e-12 5.11913e-12 4.48443e-12 3.89185e-12 3.34546e-12 2.8479e-12 2.40044e-12 2.003e-12 1.65438e-12 1.35236e-12 1.09395e-12 8.75598e-13 6.9337e-13 5.43172e-13 4.20904e-13 3.22601e-13 2.44542e-13 1.83322e-13 1.35902e-13 9.96224e-14 7.22084e-14 5.17483e-14 3.6666e-14 2.56845e-14 1.77871e-14 1.21772e-14 8.24117e-15 5.51334e-15 3.64598e-15 2.3833e-15 1.53992e-15 9.83478e-16 6.20829e-16 3.87359e-16 2.38882e-16 1.45605e-16 8.77184e-17 5.223e-17 3.07371e-17 1.78778e-17 1.02772e-17 5.83907e-18 3.27881e-18 1.81968e-18 9.98107e-19 5.41082e-19 2.89904e-19 1.53515e-19 8.03435e-20 4.15584e-20 2.12459e-20 1.07349e-20 5.36085e-21 2.64593e-21 1.29067e-21 6.22118e-22 2.96052e-22 1.38491e-22 6.23094e-23 2.38038e-23 0 
0 5.29538e-23 1.38491e-22 3.07459e-22 6.56429e-22 1.37766e-21 2.85456e-21 5.84472e-21 1.18275e-20 2.3656e-20 4.67636e-20 9.13682e-20 1.76441e-19 3.3676e-19 6.35267e-19 1.18442e-18 2.18259e-18 3.97513e-18 7.15556e-18 1.27307e-17 2.23858e-17 3.89055e-17 6.68293e-17 1.1346e-16 1.90389e-16 3.15766e-16 5.17628e-16 8.38694e-16 1.34316e-15 2.12615e-15 3.32669e-15 5.145e-15 7.86546e-15 1.1886e-14 1.77554e-14 2.62193e-14 3.82751e-14 5.52372e-14 7.88098e-14 1.11168e-13 1.55041e-13 2.13796e-13 2.91515e-13 3.93056e-13 5.24086e-13 6.91091e-13 9.01324e-13 1.16271e-12 1.4837e-12 1.87301e-12 2.33936e-12 2.89109e-12 3.53578e-12 4.27976e-12 5.12772e-12 6.08224e-12 7.14342e-12 8.30857e-12 9.57204e-12 1.09252e-11 1.23564e-11 1.38514e-11 1.53937e-11 1.69652e-11 1.85465e-11 2.01179e-11 2.16603e-11 2.31553e-11 2.45865e-11 2.59396e-11 2.72031e-11 2.83683e-11 2.94294e-11 3.0384e-11 3.12319e-11 3.19759e-11 3.26206e-11 3.31723e-11 3.36387e-11 3.4028e-11 3.4349e-11 3.46103e-11 3.48206e-11 3.49876e-11 3.51186e-11 3.52202e-11 3.52979e-11 3.53566e-11 3.54005e-11 3.54329e-11 3.54564e-11 3.54734e-11 3.54855e-11 3.54939e-11 3.54998e-11 3.55038e-11 3.55065e-11 3.55083e-11 3.55095e-11 3.55103e-11 3.55108e-11 3.55112e-11 3.55114e-11 3.55115e-11 3.55116e-11 3.55116e-11 3.55116e-11 3.55116e-11 3.55117e-11 3.55117e-11 3.55117e-11 3.55117e-11 3.55117e-11 3.55117e-11 3.55117e-11 3.55117e-11 3.55117e-11 3.55117e-11 3.55117e-11 3.55117e-11 3.55117e-11 3.55117e-11 3.55117e-11 3.55117e-11 3.55117e-11 3.55117e-11 3.55117e-11 3.55117e-11 3.55117e-11 3.55117e-11 3.55117e-11 3.55117e-11 3.55117e-11 3.55117e-11 3.55117e-11 3.55117e-11 3.55117e-11 3.55117e-11 3.55117e-11 3.55117e-11 3.55117e-11 3.55117e-11 3.55117e-11 3.55117e-11 3.55117e-11 3.55117e-11 3.55117e-11 3.55117e-11 3.55116e-11 3.55116e-11 3.55116e-11 3.55116e-11 3.55115e-11 3.55114e-11 3.55112e-11 3.55108e-11 3.55103e-11 3.55095e-11 3.55083e-11 3.55065e-11 3.55038e-11 3.54998e-11 3.54939e-11 3.54855e-11 3.54734e-11 3.54564e-11 3.54329e-11 3.54005e-11 3.53566e-11 3.52979e-11 3.52202e-11 3.51186e-11 3.49876e-11 3.48206e-11 3.46103e-11 3.4349e-11 3.4028e-11 3.36387e-11 3.31723e-11 3.26206e-11 3.19759e-11 3.12319e-11 3.0384e-11 2.94294e-11 2.83683e-11 2.72031e-11 2.59396e-11 2.45865e-11 2.31553e-11 2.16603e-11 2.01179e-11 1.85465e-11 1.69652e-11 1.53937e-11 1.38514e-11 1.23564e-11 1.09252e-11 9.57204e-12 8.30857e-12 7.14342e-12 6.08224e-12 5.12772e-12 4.27976e-12 3.53578e-12 2.89109e-12 2.33936e-12 1.87301e-12 1.4837e-12 1.16271e-12 9.01324e-13 6.91091e-13 5.24086e-13 3.93056e-13 2.91515e-13 2.13796e-13 1.55041e-13 1.11168e-13 7.88098e-14 5.52372e-14 3.82751e-14 2.62193e-14 1.77554e-14 1.1886e-14 7.86546e-15 5.145e-15 3.32669e-15 2.12615e-15 1.34316e-15 8.38694e-16 5.17628e-16 3.15766e-16 1.90389e-16 1.1346e-16 6.68293e-17 3.89055e-17 2.23858e-17 1.27307e-17 7.15556e-18 3.97513e-18 2.18259e-18 1.18442e-18 6.35267e-19 3.3676e-19 1.76441e-19 9.13682e-20 4.67636e-20 2.3656e-20 1.18275e-20 5.84472e-21 2.85456e-21 1.37766e-21 6.56429e-22 3.07459e-22 1.38491e-22 5.29538e-23 0 
0 1.13307e-22 2.96052e-22 6.56429e-22 1.39959e-21 2.9333e-21 6.06963e-21 1.24109e-20 2.5082e-20 5.01012e-20 9.89156e-20 1.93024e-19 3.72294e-19 7.0972e-19 1.33725e-18 2.49038e-18 4.58398e-18 8.33957e-18 1.49958e-17 2.66513e-17 4.68159e-17 8.12821e-17 1.39484e-16 2.36583e-16 3.96622e-16 6.5721e-16 1.07639e-15 1.74253e-15 2.7883e-15 4.41013e-15 6.89481e-15 1.06552e-14 1.6277e-14 2.45794e-14 3.66911e-14 5.41445e-14 7.89887e-14 1.13921e-13 1.62438e-13 2.28998e-13 3.19192e-13 4.39915e-13 5.99521e-13 8.07942e-13 1.07677e-12 1.41924e-12 1.85018e-12 2.38577e-12 3.04322e-12 3.84032e-12 4.79484e-12 5.92376e-12 7.2425e-12 8.76396e-12 1.04976e-11 1.24487e-11 1.46174e-11 1.69982e-11 1.95795e-11 2.23436e-11 2.52668e-11 2.83202e-11 3.14701e-11 3.46793e-11 3.79085e-11 4.11177e-11 4.42676e-11 4.7321e-11 5.02442e-11 5.30083e-11 5.55896e-11 5.79704e-11 6.01391e-11 6.20902e-11 6.38239e-11 6.53453e-11 6.6664e-11 6.7793e-11 6.87475e-11 6.95446e-11 7.0202e-11 7.07376e-11 7.11686e-11 7.1511e-11 7.17799e-11 7.19883e-11 7.21479e-11 7.22686e-11 7.23588e-11 7.24254e-11 7.24739e-11 7.25088e-11 7.25337e-11 7.25511e-11 7.25632e-11 7.25715e-11 7.25772e-11 7.25809e-11 7.25834e-11 7.2585e-11 7.25861e-11 7.25867e-11 7.25872e-11 7.25874e-11 7.25876e-11 7.25877e-11 7.25877e-11 7.25878e-11 7.25878e-11 7.25878e-11 7.25878e-11 7.25878e-11 7.25878e-11 7.25878e-11 7.25878e-11 7.25878e-11 7.25878e-11 7.25878e-11 7.25878e-11 7.25878e-11 7.25878e-11 7.25878e-11 7.25878e-11 7.25878e-11 7.25878e-11 7.25878e-11 7.25878e-11 7.25878e-11 7.25878e-11 7.25878e-11 7.25878e-11 7.25878e-11 7.25878e-11 7.25878e-11 7.25878e-11 7.25878e-11 7.25878e-11 7.25878e-11 7.25878e-11 7.25878e-11 7.25878e-11 7.25878e-11 7.25878e-11 7.25878e-11 7.25878e-11 7.25878e-11 7.25878e-11 7.25878e-11 7.25878e-11 7.25877e-11 7.25877e-11 7.25876e-11 7.25874e-11 7.25872e-11 7.25867e-11 7.25861e-11 7.2585e-11 7.25834e-11 7.25809e-11 7.25772e-11 7.25715e-11 7.25632e-11 7.25511e-11 7.25337e-11 7.25088e-11 7.24739e-11 7.24254e-11 7.23588e-11 7.22686e-11 7.21479e-11 7.19883e-11 7.17799e-11 7.1511e-11 7.11686e-11 7.07376e-11 7.0202e-11 6.95446e-11 6.87475e-11 6.7793e-11 6.6664e-11 6.53453e-11 6.38239e-11 6.20902e-11 6.01391e-11 5.79704e-11 5.55896e-11 5.30083e-11 5.02442e-11 4.7321e-11 4.42676e-11 4.11177e-11 3.79085e-11 3.46793e-11 3.14701e-11 2.83202e-11 2.52668e-11 2.23436e-11 1.95795e-11 1.69982e-11 1.46174e-11 1.24487e-11 1.04976e-11 8.76396e-12 7.2425e-12 5.92376e-12 4.79484e-12 3.84032e-12 3.04322e-12 2.38577e-12 1.85018e-12 1.41924e-12 1.07677e-12 8.07942e-13 5.99521e-13 4.39915e-13 3.19192e-13 2.28998e-13 1.62438e-13 1.13921e-13 7.89887e-14 5.41445e-14 3.66911e-14 2.45794e-14 1.6277e-14 1.06552e-14 6.89481e-15 4.41013e-15 2.7883e-15 1.74253e-15 1.07639e-15 6.5721e-16 3.96622e-16 2.36583e-16 1.39484e-16 8.12821e-17 4.68159e-17 2.66513e-17 1.49958e-17 8.33957e-18 4.58398e-18 2.49038e-18 1.33725e-18 7.0972e-19 3.72294e-19 1.93024e-19 9.89156e-20 5.01012e-20 2.5082e-20 1.24109e-20 6.06963e-21 2.9333e-21 1.39959e-21 6.56429e-22 2.96052e-22 1.13307e-22 0 
0 2.38331e-22 6.22118e-22 1.37766e-21 2.9333e-21 6.13915e-21 1.26857e-20 2.5904e-20 5.22811e-20 1.04295e-19 2.05646e-19 4.00792e-19 7.72068e-19 1.47004e-18 2.76656e-18 5.1462e-18 9.46166e-18 1.71942e-17 3.0884e-17 5.483e-17 9.62142e-17 1.66877e-16 2.86084e-16 4.84763e-16 8.11912e-16 1.34411e-15 2.19942e-15 3.55743e-15 5.68752e-15 8.98821e-15 1.40409e-14 2.16816e-14 3.30958e-14 4.994e-14 7.4495e-14 1.09855e-13 1.60155e-13 2.30834e-13 3.28936e-13 4.63441e-13 6.45602e-13 8.89286e-13 1.21128e-12 1.63155e-12 2.17336e-12 2.86329e-12 3.73106e-12 4.8091e-12 6.13192e-12 7.73514e-12 9.65431e-12 1.19234e-11 1.45733e-11 1.76297e-11 2.11115e-11 2.50291e-11 2.93828e-11 3.41613e-11 3.93415e-11 4.48878e-11 5.0753e-11 5.68787e-11 6.31975e-11 6.96352e-11 7.6113e-11 8.25507e-11 8.88695e-11 9.49952e-11 1.0086e-10 1.06407e-10 1.11587e-10 1.16365e-10 1.20719e-10 1.24637e-10 1.28119e-10 1.31175e-10 1.33825e-10 1.36094e-10 1.38013e-10 1.39616e-10 1.40939e-10 1.42017e-10 1.42885e-10 1.43575e-10 1.44117e-10 1.44537e-10 1.44859e-10 1.45103e-10 1.45285e-10 1.45419e-10 1.45517e-10 1.45588e-10 1.45638e-10 1.45674e-10 1.45698e-10 1.45715e-10 1.45727e-10 1.45734e-10 1.45739e-10 1.45743e-10 1.45745e-10 1.45746e-10 1.45747e-10 1.45747e-10 1.45748e-10 1.45748e-10 1.45748e-10 1.45748e-10 1.45748e-10 1.45748e-10 1.45748e-10 1.45748e-10 1.45748e-10 1.45748e-10 1.45748e-10 1.45748e-10 1.45748e-10 1.45748e-10 1.45748e-10 1.45748e-10 1.45748e-10 1.45748e-10 1.45748e-10 1.45748e-10 1.45748e-10 1.45748e-10 1.45748e-10 1.45748e-10 1.45748e-10 1.45748e-10 1.45748e-10 1.45748e-10 1.45748e-10 1.45748e-10 1.45748e-10 1.45748e-10 1.45748e-10 1.45748e-10 1.45748e-10 1.45748e-10 1.45748e-10 1.45748e-10 1.45748e-10 1.45748e-10 1.45748e-10 1.45748e-10 1.45748e-10 1.45748e-10 1.45748e-10 1.45748e-10 1.45748e-10 1.45748e-10 1.45747e-10 1.45747e-10 1.45746e-10 1.45745e-10 1.45743e-10 1.45739e-10 1.45734e-10 1.45727e-10 1.45715e-10 1.45698e-10 1.45674e-10 1.45638e-10 1.45588e-10 1.45517e-10 1.45419e-10 1.45285e-10 1.45103e-10 1.44859e-10 1.44537e-10 1.44117e-10 1.43575e-10 1.42885e-10 1.42017e-10 1.40939e-10 1.39616e-10 1.38013e-10 1.36094e-10 1.33825e-10 1.31175e-10 1.28119e-10 1.24637e-10 1.20719e-10 1.16365e-10 1.11587e-10 1.06407e-10 1.0086e-10 9.49952e-11 8.88695e-11 8.25507e-11 7.6113e-11 6.96352e-11 6.31975e-11 5.68787e-11 5.0753e-11 4.48878e-11 3.93415e-11 3.41613e-11 2.93828e-11 2.50291e-11 2.11115e-11 1.76297e-11 1.45733e-11 1.19234e-11 9.65431e-12 7.73514e-12 6.13192e-12 4.8091e-12 3.73106e-12 2.86329e-12 2.17336e-12 1.63155e-12 1.21128e-12 8.89286e-13 6.45602e-13 4.63441e-13 3.28936e-13 2.30834e-13 1.60155e-13 1.09855e-13 7.4495e-14 4.994e-14 3.30958e-14 2.16816e-14 1.40409e-14 8.98821e-15 5.68752e-15 3.55743e-15 2.19942e-15 1.34411e-15 8.11912e-16 4.84763e-16 2.86084e-16 1.66877e-16 9.62142e-17 5.483e-17 3.0884e-17 1.71942e-17 9.46166e-18 5.1462e-18 2.76656e-18 1.47004e-18 7.72068e-19 4.00792e-19 2.05646e-19 1.04295e-19 5.22811e-20 2.5904e-20 1.26857e-20 6.13915e-21 2.9333e-21 1.37766e-21 6.22118e-22 2.38331e-22 0 
0 4.94923e-22 1.29067e-21 2.85456e-21 6.06963e-21 1.26857e-20 2.61774e-20 5.3382e-20 1.07597e-19 2.14364e-19 4.22139e-19 8.21695e-19 1.58094e-18 3.00653e-18 5.65151e-18 1.05005e-17 1.9284e-17 3.50051e-17 6.28074e-17 1.11387e-16 1.95256e-16 3.38316e-16 5.79414e-16 9.80856e-16 1.64125e-15 2.71457e-15 4.43798e-15 7.1719e-15 1.14565e-14 1.80902e-14 2.82367e-14 4.35685e-14 6.64547e-14 1.00203e-13 1.49366e-13 2.20114e-13 3.20685e-13 4.61911e-13 6.57813e-13 9.26245e-13 1.28958e-12 1.77535e-12 2.41691e-12 3.25384e-12 4.33228e-12 5.70493e-12 7.43065e-12 9.57366e-12 1.22022e-11 1.53869e-11 1.91978e-11 2.37022e-11 2.89608e-11 3.50245e-11 4.19306e-11 4.96994e-11 5.83311e-11 6.78036e-11 7.80706e-11 8.9062e-11 1.00684e-10 1.12821e-10 1.2534e-10 1.38095e-10 1.50928e-10 1.63682e-10 1.76201e-10 1.88339e-10 1.9996e-10 2.10952e-10 2.21219e-10 2.30691e-10 2.39323e-10 2.47092e-10 2.53998e-10 2.60062e-10 2.6532e-10 2.69825e-10 2.73636e-10 2.7682e-10 2.79449e-10 2.81592e-10 2.83318e-10 2.8469e-10 2.85769e-10 2.86606e-10 2.87247e-10 2.87733e-10 2.88096e-10 2.88365e-10 2.88561e-10 2.88702e-10 2.88802e-10 2.88873e-10 2.88922e-10 2.88956e-10 2.88979e-10 2.88994e-10 2.89004e-10 2.89011e-10 2.89015e-10 2.89018e-10 2.8902e-10 2.89021e-10 2.89022e-10 2.89022e-10 2.89022e-10 2.89022e-10 2.89022e-10 2.89022e-10 2.89023e-10 2.89023e-10 2.89023e-10 2.89023e-10 2.89023e-10 2.89023e-10 2.89023e-10 2.89023e-10 2.89023e-10 2.89023e-10 2.89023e-10 2.89023e-10 2.89023e-10 2.89023e-10 2.89023e-10 2.89023e-10 2.89023e-10 2.89023e-10 2.89023e-10 2.89023e-10 2.89023e-10 2.89023e-10 2.89023e-10 2.89023e-10 2.89023e-10 2.89023e-10 2.89023e-10 2.89023e-10 2.89023e-10 2.89023e-10 2.89023e-10 2.89023e-10 2.89023e-10 2.89023e-10 2.89023e-10 2.89023e-10 2.89022e-10 2.89022e-10 2.89022e-10 2.89022e-10 2.89022e-10 2.89022e-10 2.89021e-10 2.8902e-10 2.89018e-10 2.89015e-10 2.89011e-10 2.89004e-10 2.88994e-10 2.88979e-10 2.88956e-10 2.88922e-10 2.88873e-10 2.88802e-10 2.88702e-10 2.88561e-10 2.88365e-10 2.88096e-10 2.87733e-10 2.87247e-10 2.86606e-10 2.85769e-10 2.8469e-10 2.83318e-10 2.81592e-10 2.79449e-10 2.7682e-10 2.73636e-10 2.69825e-10 2.6532e-10 2.60062e-10 2.53998e-10 2.47092e-10 2.39323e-10 2.30691e-10 2.21219e-10 2.10952e-10 1.9996e-10 1.88339e-10 1.76201e-10 1.63682e-10 1.50928e-10 1.38095e-10 1.2534e-10 1.12821e-10 1.00684e-10 8.9062e-11 7.80706e-11 6.78036e-11 5.83311e-11 4.96994e-11 4.19306e-11 3.50245e-11 2.89608e-11 2.37022e-11 1.91978e-11 1.53869e-11 1.22022e-11 9.57366e-12 7.43065e-12 5.70493e-12 4.33228e-12 3.25384e-12 2.41691e-12 1.77535e-12 1.28958e-12 9.26245e-13 6.57813e-13 4.61911e-13 3.20685e-13 2.20114e-13 1.49366e-13 1.00203e-13 6.64547e-14 4.35685e-14 2.82367e-14 1.80902e-14 1.14565e-14 7.1719e-15 4.43798e-15 2.71457e-15 1.64125e-15 9.80856e-16 5.79414e-16 3.38316e-16 1.95256e-16 1.11387e-16 6.28074e-17 3.50051e-17 1.9284e-17 1.05005e-17 5.65151e-18 3.00653e-18 1.58094e-18 8.21695e-19 4.22139e-19 2.14364e-19 1.07597e-19 5.3382e-20 2.61774e-20 1.26857e-20 6.06963e-21 2.85456e-21 1.29067e-21 4.94923e-22 0 
0 1.01556e-21 2.64593e-21 5.84472e-21 1.24109e-20 2.5904e-20 5.3382e-20 1.08714e-19 2.18839e-19 4.35433e-19 8.56408e-19 1.66495e-18 3.19948e-18 6.07738e-18 1.14106e-17 2.11768e-17 3.88476e-17 7.04409e-17 1.26252e-16 2.23671e-16 3.91685e-16 6.77985e-16 1.16001e-15 1.96185e-15 3.27968e-15 5.41955e-15 8.85247e-15 1.42935e-14 2.28136e-14 3.5994e-14 5.61381e-14 8.6553e-14 1.3192e-13 1.98771e-13 2.96088e-13 4.36034e-13 6.34844e-13 9.13844e-13 1.30062e-12 1.83029e-12 2.54681e-12 3.50428e-12 4.76812e-12 6.41604e-12 8.53849e-12 1.12387e-11 1.46321e-11 1.88443e-11 2.40089e-11 3.02638e-11 3.77463e-11 4.65876e-11 5.69065e-11 6.88019e-11 8.23466e-11 9.75799e-11 1.14502e-10 1.33069e-10 1.5319e-10 1.74729e-10 1.975e-10 2.2128e-10 2.45806e-10 2.70792e-10 2.95932e-10 3.20918e-10 3.45444e-10 3.69223e-10 3.91995e-10 4.13533e-10 4.33655e-10 4.52222e-10 4.69144e-10 4.84377e-10 4.97922e-10 5.09817e-10 5.20136e-10 5.28977e-10 5.3646e-10 5.42715e-10 5.4788e-10 5.52092e-10 5.55485e-10 5.58185e-10 5.60308e-10 5.61956e-10 5.6322e-10 5.64177e-10 5.64893e-10 5.65423e-10 5.6581e-10 5.66089e-10 5.66288e-10 5.66428e-10 5.66525e-10 5.66592e-10 5.66637e-10 5.66668e-10 5.66688e-10 5.66701e-10 5.6671e-10 5.66715e-10 5.66718e-10 5.6672e-10 5.66722e-10 5.66723e-10 5.66723e-10 5.66723e-10 5.66724e-10 5.66724e-10 5.66724e-10 5.66724e-10 5.66724e-10 5.66724e-10 5.66724e-10 5.66724e-10 5.66724e-10 5.66724e-10 5.66724e-10 5.66724e-10 5.66724e-10 5.66724e-10 5.66724e-10 5.66724e-10 5.66724e-10 5.66724e-10 5.66724e-10 5.66724e-10 5.66724e-10 5.66724e-10 5.66724e-10 5.66724e-10 5.66724e-10 5.66724e-10 5.66724e-10 5.66724e-10 5.66724e-10 5.66724e-10 5.66724e-10 5.66724e-10 5.66724e-10 5.66724e-10 5.66724e-10 5.66724e-10 5.66724e-10 5.66724e-10 5.66724e-10 5.66724e-10 5.66723e-10 5.66723e-10 5.66723e-10 5.66722e-10 5.6672e-10 5.66718e-10 5.66715e-10 5.6671e-10 5.66701e-10 5.66688e-10 5.66668e-10 5.66637e-10 5.66592e-10 5.66525e-10 5.66428e-10 5.66288e-10 5.66089e-10 5.6581e-10 5.65423e-10 5.64893e-10 5.64177e-10 5.6322e-10 5.61956e-10 5.60308e-10 5.58185e-10 5.55485e-10 5.52092e-10 5.4788e-10 5.42715e-10 5.3646e-10 5.28977e-10 5.20136e-10 5.09817e-10 4.97922e-10 4.84377e-10 4.69144e-10 4.52222e-10 4.33655e-10 4.13533e-10 3.91995e-10 3.69223e-10 3.45444e-10 3.20918e-10 2.95932e-10 2.70792e-10 2.45806e-10 2.2128e-10 1.975e-10 1.74729e-10 1.5319e-10 1.33069e-10 1.14502e-10 9.75799e-11 8.23466e-11 6.88019e-11 5.69065e-11 4.65876e-11 3.77463e-11 3.02638e-11 2.40089e-11 1.88443e-11 1.46321e-11 1.12387e-11 8.53849e-12 6.41604e-12 4.76812e-12 3.50428e-12 2.54681e-12 1.83029e-12 1.30062e-12 9.13844e-13 6.34844e-13 4.36034e-13 2.96088e-13 1.98771e-13 1.3192e-13 8.6553e-14 5.61381e-14 3.5994e-14 2.28136e-14 1.42935e-14 8.85247e-15 5.41955e-15 3.27968e-15 1.96185e-15 1.16001e-15 6.77985e-16 3.91685e-16 2.23671e-16 1.26252e-16 7.04409e-17 3.88476e-17 2.11768e-17 1.14106e-17 6.07738e-18 3.19948e-18 1.66495e-18 8.56408e-19 4.35433e-19 2.18839e-19 1.08714e-19 5.3382e-20 2.5904e-20 1.24109e-20 5.84472e-21 2.64593e-21 1.01556e-21 0 
0 2.0595e-21 5.36085e-21 1.18275e-20 2.5082e-20 5.22811e-20 1.07597e-19 2.18839e-19 4.39952e-19 8.74292e-19 1.71743e-18 3.33483e-18 6.40083e-18 1.21442e-17 2.27754e-17 4.22211e-17 7.73674e-17 1.40137e-16 2.50906e-16 4.44054e-16 7.76829e-16 1.34333e-15 2.29619e-15 3.87976e-15 6.47998e-15 1.06984e-14 1.746e-14 2.81677e-14 4.49207e-14 7.08169e-14 1.10364e-13 1.70029e-13 2.5896e-13 3.89912e-13 5.80409e-13 8.54172e-13 1.24283e-12 1.78792e-12 2.54312e-12 3.57672e-12 4.97415e-12 6.84053e-12 9.30287e-12 1.25119e-11 1.66431e-11 2.18967e-11 2.84959e-11 3.66843e-11 4.67205e-11 5.88711e-11 7.34015e-11 9.05655e-11 1.10592e-10 1.33673e-10 1.59947e-10 1.8949e-10 2.22302e-10 2.58298e-10 2.97302e-10 3.39047e-10 3.83177e-10 4.29257e-10 4.76781e-10 5.25194e-10 5.73907e-10 6.22321e-10 6.69845e-10 7.15925e-10 7.60055e-10 8.018e-10 8.40804e-10 8.76799e-10 9.09611e-10 9.39155e-10 9.65429e-10 9.88509e-10 1.00854e-09 1.0257e-09 1.04023e-09 1.05238e-09 1.06242e-09 1.07061e-09 1.0772e-09 1.08246e-09 1.08659e-09 1.0898e-09 1.09226e-09 1.09413e-09 1.09553e-09 1.09656e-09 1.09731e-09 1.09786e-09 1.09825e-09 1.09852e-09 1.09871e-09 1.09884e-09 1.09893e-09 1.09899e-09 1.09903e-09 1.09906e-09 1.09907e-09 1.09908e-09 1.09909e-09 1.0991e-09 1.0991e-09 1.0991e-09 1.0991e-09 1.0991e-09 1.0991e-09 1.0991e-09 1.0991e-09 1.0991e-09 1.0991e-09 1.0991e-09 1.0991e-09 1.0991e-09 1.0991e-09 1.0991e-09 1.0991e-09 1.0991e-09 1.0991e-09 1.0991e-09 1.0991e-09 1.0991e-09 1.0991e-09 1.0991e-09 1.0991e-09 1.0991e-09 1.0991e-09 1.0991e-09 1.0991e-09 1.0991e-09 1.0991e-09 1.0991e-09 1.0991e-09 1.0991e-09 1.0991e-09 1.0991e-09 1.0991e-09 1.0991e-09 1.0991e-09 1.0991e-09 1.0991e-09 1.0991e-09 1.0991e-09 1.0991e-09 1.0991e-09 1.0991e-09 1.0991e-09 1.0991e-09 1.0991e-09 1.0991e-09 1.0991e-09 1.09909e-09 1.09908e-09 1.09907e-09 1.09906e-09 1.09903e-09 1.09899e-09 1.09893e-09 1.09884e-09 1.09871e-09 1.09852e-09 1.09825e-09 1.09786e-09 1.09731e-09 1.09656e-09 1.09553e-09 1.09413e-09 1.09226e-09 1.0898e-09 1.08659e-09 1.08246e-09 1.0772e-09 1.07061e-09 1.06242e-09 1.05238e-09 1.04023e-09 1.0257e-09 1.00854e-09 9.88509e-10 9.65429e-10 9.39155e-10 9.09611e-10 8.76799e-10 8.40804e-10 8.018e-10 7.60055e-10 7.15925e-10 6.69845e-10 6.22321e-10 5.73907e-10 5.25194e-10 4.76781e-10 4.29257e-10 3.83177e-10 3.39047e-10 2.97302e-10 2.58298e-10 2.22302e-10 1.8949e-10 1.59947e-10 1.33673e-10 1.10592e-10 9.05655e-11 7.34015e-11 5.88711e-11 4.67205e-11 3.66843e-11 2.84959e-11 2.18967e-11 1.66431e-11 1.25119e-11 9.30287e-12 6.84053e-12 4.97415e-12 3.57672e-12 2.54312e-12 1.78792e-12 1.24283e-12 8.54172e-13 5.80409e-13 3.89912e-13 2.5896e-13 1.70029e-13 1.10364e-13 7.08169e-14 4.49207e-14 2.81677e-14 1.746e-14 1.06984e-14 6.47998e-15 3.87976e-15 2.29619e-15 1.34333e-15 7.76829e-16 4.44054e-16 2.50906e-16 1.40137e-16 7.73674e-17 4.22211e-17 2.27754e-17 1.21442e-17 6.40083e-18 3.33483e-18 1.71743e-18 8.74292e-19 4.39952e-19 2.18839e-19 1.07597e-19 5.22811e-20 2.5082e-20 1.18275e-20 5.36085e-21 2.0595e-21 0 
0 4.12781e-21 1.07349e-20 2.3656e-20 5.01012e-20 1.04295e-19 2.14364e-19 4.35433e-19 8.74292e-19 1.73529e-18 3.40462e-18 6.60307e-18 1.26591e-17 2.39903e-17 4.49415e-17 8.32212e-17 1.52334e-16 2.75633e-16 4.92996e-16 8.71624e-16 1.52332e-15 2.63166e-15 4.49414e-15 7.58653e-15 1.26597e-14 2.08827e-14 3.40519e-14 5.48894e-14 8.74649e-14 1.37779e-13 2.14555e-13 3.30304e-13 5.02703e-13 7.56384e-13 1.12516e-12 1.65479e-12 2.40622e-12 3.45943e-12 4.91777e-12 6.91258e-12 9.60811e-12 1.32063e-11 1.79511e-11 2.41317e-11 3.20849e-11 4.21942e-11 5.48879e-11 7.06322e-11 8.99222e-11 1.13268e-10 1.41178e-10 1.74136e-10 2.1258e-10 2.56875e-10 3.07287e-10 3.6396e-10 4.26892e-10 4.95917e-10 5.70701e-10 6.5073e-10 7.35324e-10 8.23647e-10 9.14735e-10 1.00752e-09 1.10089e-09 1.19367e-09 1.28476e-09 1.37309e-09 1.45768e-09 1.53771e-09 1.61249e-09 1.68152e-09 1.74445e-09 1.80112e-09 1.85153e-09 1.89583e-09 1.93427e-09 1.96723e-09 1.99514e-09 2.01849e-09 2.03778e-09 2.05352e-09 2.06621e-09 2.07632e-09 2.08428e-09 2.09046e-09 2.0952e-09 2.0988e-09 2.1015e-09 2.10349e-09 2.10495e-09 2.106e-09 2.10675e-09 2.10728e-09 2.10765e-09 2.10791e-09 2.10808e-09 2.10819e-09 2.10827e-09 2.10832e-09 2.10835e-09 2.10838e-09 2.10839e-09 2.1084e-09 2.1084e-09 2.1084e-09 2.10841e-09 2.10841e-09 2.10841e-09 2.10841e-09 2.10841e-09 2.10841e-09 2.10841e-09 2.10841e-09 2.10841e-09 2.10841e-09 2.10841e-09 2.10841e-09 2.10841e-09 2.10841e-09 2.10841e-09 2.10841e-09 2.10841e-09 2.10841e-09 2.10841e-09 2.10841e-09 2.10841e-09 2.10841e-09 2.10841e-09 2.10841e-09 2.10841e-09 2.10841e-09 2.10841e-09 2.10841e-09 2.10841e-09 2.10841e-09 2.10841e-09 2.10841e-09 2.10841e-09 2.10841e-09 2.10841e-09 2.10841e-09 2.10841e-09 2.10841e-09 2.10841e-09 2.10841e-09 2.10841e-09 2.10841e-09 2.10841e-09 2.10841e-09 2.1084e-09 2.1084e-09 2.1084e-09 2.10839e-09 2.10838e-09 2.10835e-09 2.10832e-09 2.10827e-09 2.10819e-09 2.10808e-09 2.10791e-09 2.10765e-09 2.10728e-09 2.10675e-09 2.106e-09 2.10495e-09 2.10349e-09 2.1015e-09 2.0988e-09 2.0952e-09 2.09046e-09 2.08428e-09 2.07632e-09 2.06621e-09 2.05352e-09 2.03778e-09 2.01849e-09 1.99514e-09 1.96723e-09 1.93427e-09 1.89583e-09 1.85153e-09 1.80112e-09 1.74445e-09 1.68152e-09 1.61249e-09 1.53771e-09 1.45768e-09 1.37309e-09 1.28476e-09 1.19367e-09 1.10089e-09 1.00752e-09 9.14735e-10 8.23647e-10 7.35324e-10 6.5073e-10 5.70701e-10 4.95917e-10 4.26892e-10 3.6396e-10 3.07287e-10 2.56875e-10 2.1258e-10 1.74136e-10 1.41178e-10 1.13268e-10 8.99222e-11 7.06322e-11 5.48879e-11 4.21942e-11 3.20849e-11 2.41317e-11 1.79511e-11 1.32063e-11 9.60811e-12 6.91258e-12 4.91777e-12 3.45943e-12 2.40622e-12 1.65479e-12 1.12516e-12 7.56384e-13 5.02703e-13 3.30304e-13 2.14555e-13 1.37779e-13 8.74649e-14 5.48894e-14 3.40519e-14 2.08827e-14 1.26597e-14 7.58653e-15 4.49414e-15 2.63166e-15 1.52332e-15 8.71624e-16 4.92996e-16 2.75633e-16 1.52334e-16 8.32212e-17 4.49415e-17 2.39903e-17 1.26591e-17 6.60307e-18 3.40462e-18 1.73529e-18 8.74292e-19 4.35433e-19 2.14364e-19 1.04295e-19 5.01012e-20 2.3656e-20 1.07349e-20 4.12781e-21 0 