<?xml version="1.0"?>
<VTKFile type="ImageData" version="0.1" byte_order="LittleEndian">
  <ImageData WholeExtent="0 255 0 255 0 0" Origin="0 0 0" Spacing="1 1 1">
  <Piece Extent="0 255 0 255 0 0">
    <PointData>
      <DataArray type="Float32" Name="scalar_data" format="ascii" >0 0 0 0 0 0 0 0 0 0 0 0 0 0 0 0 0 0 0 0 0 0 0 0 0 0 0 0 0 0 0 0 0 0 0 0 0 0 0 0 0 0 0 0 0 0 0 0 0 0 0 0 0 0 0 0 0 0 0 0 0 0 0 0 0 0 0 0 0 0 0 0 0 0 0 0 0 0 0 0 0 0 0 0 0 0 0 0 0 0 0 0 0 0 0 0 0 0 0 0 0 0 0 0 0 0 0 0 0 0 0 0 0 0 0 0 0 0 0 0 0 0 0 0 0 0 0 0 0 0 0 0 0 0 0 0 0 0 0 0 0 0 0 0 0 0 0 0 0 0 0 0 0 0 0 0 0 0 0 0 0 0 0 0 0 0 0 0 0 0 0 0 0 0 0 0 0 0 0 0 0 0 0 0 0 0 0 0 0 0 0 0 0 0 0 0 0 0 0 0 0 0 0 0 0 0 0 0 0 0 0 0 0 0 0 0 0 0 0 0 0 0 0 0 0 0 0 0 0 0 0 0 0 0 0 0 0 0 0 0 0 0 0 0 0 0 0 0 0 0 0 0 0 0 0 0 
0 6.24663e-14 1.34342e-13 2.26208e-13 3.51109e-13 5.26064e-13 7.73959e-13 1.12596e-12 1.6246e-12 2.3279e-12 3.3145e-12 4.69054e-12 6.59823e-12 9.22689e-12 1.28268e-11 1.77266e-11 2.43544e-11 3.32646e-11 4.51691e-11 6.09761e-11 8.18352e-11 1.09191e-10 1.44846e-10 1.91029e-10 2.5048e-10 3.26538e-10 4.23238e-10 5.45422e-10 6.9885e-10 8.90318e-10 1.12778e-09 1.42045e-09 1.77893e-09 2.2153e-09 2.74319e-09 3.37782e-09 4.13604e-09 5.03631e-09 6.09858e-09 7.34423e-09 8.79584e-09 1.04769e-08 1.24117e-08 1.46246e-08 1.71398e-08 1.99809e-08 2.31701e-08 2.67278e-08 3.06719e-08 3.50172e-08 3.97745e-08 4.49507e-08 5.05474e-08 5.65612e-08 6.29829e-08 6.97974e-08 7.69839e-08 8.45152e-08 9.23588e-08 1.00477e-07 1.08826e-07 1.17361e-07 1.26029e-07 1.3478e-07 1.43557e-07 1.52308e-07 1.60976e-07 1.69511e-07 1.7786e-07 1.85978e-07 1.93822e-07 2.01353e-07 2.0854e-07 2.15354e-07 2.21776e-07 2.2779e-07 2.33386e-07 2.38563e-07 2.4332e-07 2.47665e-07 2.51609e-07 2.55167e-07 2.58356e-07 2.61197e-07 2.63713e-07 2.65925e-07 2.6786e-07 2.69541e-07 2.70993e-07 2.72239e-07 2.73301e-07 2.74201e-07 2.74959e-07 2.75594e-07 2.76122e-07 2.76558e-07 2.76917e-07 2.77209e-07 2.77447e-07 2.77638e-07 2.77792e-07 2.77914e-07 2.78011e-07 2.78087e-07 2.78146e-07 2.78192e-07 2.78228e-07 2.78255e-07 2.78276e-07 2.78292e-07 2.78304e-07 2.78313e-07 2.78319e-07 2.78324e-07 2.78328e-07 2.78331e-07 2.78332e-07 2.78334e-07 2.78335e-07 2.78336e-07 2.78336e-07 2.78336e-07 2.78337e-07 2.78337e-07 2.78337e-07 2.78337e-07 2.78337e-07 2.78337e-07 2.78337e-07 2.78337e-07 2.78337e-07 2.78337e-07 2.78337e-07 2.78337e-07 2.78336e-07 2.78336e-07 2.78336e-07 2.78335e-07 2.78334e-07 2.78332e-07 2.78331e-07 2.78328e-07 2.78324e-07 2.78319e-07 2.78313e-07 2.78304e-07 2.78292e-07 2.78276e-07 2.78255e-07 2.78228e-07 2.78192e-07 2.78146e-07 2.78087e-07 2.78011e-07 2.77914e-07 2.77792e-07 2.77638e-07 2.77447e-07 2.77209e-07 2.76917e-07 2.76558e-07 2.76122e-07 2.75594e-07 2.74959e-07 2.74201e-07 2.73301e-07 2.72239e-07 2.70993e-07 2.69541e-07 2.6786e-07 2.65925e-07 2.63713e-07 2.61197e-07 2.58356e-07 2.55167e-07 2.51609e-07 2.47665e-07 2.4332e-07 2.38563e-07 2.33386e-07 2.2779e-07 2.21776e-07 2.15354e-07 2.0854e-07 2.01353e-07 1.93822e-07 1.85978e-07 1.7786e-07 1.69511e-07 1.60976e-07 1.52308e-07 1.43557e-07 1.3478e-07 1.26029e-07 1.17361e-07 1.08826e-07 1.00477e-07 9.23588e-08 8.45152e-08 7.69839e-08 6.97974e-08 6.29829e-08 5.65612e-08 5.05474e-08 4.49507e-08 3.97745e-08 3.50172e-08 3.06719e-08 2.67278e-08 2.31701e-08 1.99809e-08 1.71398e-08 1.46246e-08 1.24117e-08 1.04769e-08 8.79584e-09 7.34423e-09 6.09858e-09 5.03631e-09 4.13604e-09 3.37782e-09 2.74319e-09 2.2153e-09 1.77893e-09 1.42045e-09 1.12778e-09 8.90318e-10 6.9885e-10 5.45422e-10 4.23238e-10 3.26538e-10 2.5048e-10 1.91029e-10 1.44846e-10 1.09191e-10 8.18352e-11 6.09761e-11 4.51691e-11 3.32646e-11 2.43544e-11 1.77266e-11 1.28268e-11 9.22689e-12 6.59823e-12 4.69054e-12 3.3145e-12 2.3279e-12 1.6246e-12 1.12596e-12 7.73959e-13 5.26064e-13 3.51109e-13 2.26208e-13 1.34342e-13 6.24663e-14 0 
0 1.34342e-13 2.88909e-13 4.86451e-13 7.54998e-13 1.13113e-12 1.66404e-12 2.42066e-12 3.49244e-12 5.00395e-12 7.1242e-12 1.00811e-11 1.41802e-11 1.98281e-11 2.75624e-11 3.80885e-11 5.23262e-11 7.14654e-11 9.70349e-11 1.30984e-10 1.75782e-10 2.34529e-10 3.11093e-10 4.1026e-10 5.37911e-10 7.01209e-10 9.08817e-10 1.17112e-09 1.50049e-09 1.9115e-09 2.42121e-09 3.0494e-09 3.81882e-09 4.75538e-09 5.8883e-09 7.25026e-09 8.87741e-09 1.08093e-08 1.30888e-08 1.57616e-08 1.88763e-08 2.24833e-08 2.66345e-08 3.13822e-08 3.67785e-08 4.28737e-08 4.97156e-08 5.7348e-08 6.5809e-08 7.51303e-08 8.53356e-08 9.6439e-08 1.08444e-07 1.21344e-07 1.35119e-07 1.49736e-07 1.65151e-07 1.81305e-07 1.98129e-07 2.15541e-07 2.3345e-07 2.51755e-07 2.70348e-07 2.89117e-07 3.07944e-07 3.26713e-07 3.45306e-07 3.63611e-07 3.8152e-07 3.98932e-07 4.15756e-07 4.3191e-07 4.47325e-07 4.61942e-07 4.75717e-07 4.88617e-07 5.00622e-07 5.11725e-07 5.21931e-07 5.31252e-07 5.39713e-07 5.47345e-07 5.54187e-07 5.60283e-07 5.65679e-07 5.70427e-07 5.74578e-07 5.78185e-07 5.81299e-07 5.83972e-07 5.86252e-07 5.88184e-07 5.89811e-07 5.91173e-07 5.92306e-07 5.93242e-07 5.94012e-07 5.9464e-07 5.9515e-07 5.95561e-07 5.9589e-07 5.96152e-07 5.9636e-07 5.96523e-07 5.96651e-07 5.9675e-07 5.96827e-07 5.96885e-07 5.9693e-07 5.96964e-07 5.9699e-07 5.97009e-07 5.97023e-07 5.97034e-07 5.97041e-07 5.97047e-07 5.97051e-07 5.97054e-07 5.97056e-07 5.97058e-07 5.97059e-07 5.97059e-07 5.9706e-07 5.9706e-07 5.97061e-07 5.97061e-07 5.97061e-07 5.97061e-07 5.97061e-07 5.97061e-07 5.97061e-07 5.97061e-07 5.9706e-07 5.9706e-07 5.97059e-07 5.97059e-07 5.97058e-07 5.97056e-07 5.97054e-07 5.97051e-07 5.97047e-07 5.97041e-07 5.97034e-07 5.97023e-07 5.97009e-07 5.9699e-07 5.96964e-07 5.9693e-07 5.96885e-07 5.96827e-07 5.9675e-07 5.96651e-07 5.96523e-07 5.9636e-07 5.96152e-07 5.9589e-07 5.95561e-07 5.9515e-07 5.9464e-07 5.94012e-07 5.93242e-07 5.92306e-07 5.91173e-07 5.89811e-07 5.88184e-07 5.86252e-07 5.83972e-07 5.81299e-07 5.78185e-07 5.74578e-07 5.70427e-07 5.65679e-07 5.60283e-07 5.54187e-07 5.47345e-07 5.39713e-07 5.31252e-07 5.21931e-07 5.11725e-07 5.00622e-07 4.88617e-07 4.75717e-07 4.61942e-07 4.47325e-07 4.3191e-07 4.15756e-07 3.98932e-07 3.8152e-07 3.63611e-07 3.45306e-07 3.26713e-07 3.07944e-07 2.89117e-07 2.70348e-07 2.51755e-07 2.3345e-07 2.15541e-07 1.98129e-07 1.81305e-07 1.65151e-07 1.49736e-07 1.35119e-07 1.21344e-07 1.08444e-07 9.6439e-08 8.53356e-08 7.51303e-08 6.5809e-08 5.7348e-08 4.97156e-08 4.28737e-08 3.67785e-08 3.13822e-08 2.66345e-08 2.24833e-08 1.88763e-08 1.57616e-08 1.30888e-08 1.08093e-08 8.87741e-09 7.25026e-09 5.8883e-09 4.75538e-09 3.81882e-09 3.0494e-09 2.42121e-09 1.9115e-09 1.50049e-09 1.17112e-09 9.08817e-10 7.01209e-10 5.37911e-10 4.1026e-10 3.11093e-10 2.34529e-10 1.75782e-10 1.30984e-10 9.70349e-11 7.14654e-11 5.23262e-11 3.80885e-11 2.75624e-11 1.98281e-11 1.41802e-11 1.00811e-11 7.1242e-12 5.00395e-12 3.49244e-12 2.42066e-12 1.66404e-12 1.13113e-12 7.54998e-13 4.86451e-13 2.88909e-13 1.34342e-13 0 
0 2.26208e-13 4.86451e-13 8.19001e-13 1.27102e-12 1.90403e-12 2.80076e-12 4.0738e-12 5.87685e-12 8.41938e-12 1.19855e-11 1.69583e-11 2.38512e-11 3.33474e-11 4.63502e-11 6.4045e-11 8.79766e-11 1.20144e-10 1.63115e-10 2.20163e-10 2.95434e-10 3.94134e-10 5.22756e-10 6.89338e-10 9.03748e-10 1.17801e-09 1.52667e-09 1.96715e-09 2.5202e-09 3.21029e-09 4.06604e-09 5.12064e-09 6.41225e-09 7.98432e-09 9.88589e-09 1.21718e-08 1.49025e-08 1.81446e-08 2.19697e-08 2.64547e-08 3.16809e-08 3.77329e-08 4.46975e-08 5.26627e-08 6.17155e-08 7.19405e-08 8.34177e-08 9.62204e-08 1.10413e-07 1.26047e-07 1.43164e-07 1.61787e-07 1.81922e-07 2.03557e-07 2.26659e-07 2.51173e-07 2.77023e-07 3.04114e-07 3.32328e-07 3.61528e-07 3.9156e-07 4.22257e-07 4.53437e-07 4.8491e-07 5.16482e-07 5.47955e-07 5.79135e-07 6.09832e-07 6.39864e-07 6.69064e-07 6.97278e-07 7.24369e-07 7.5022e-07 7.74734e-07 7.97835e-07 8.1947e-07 8.39605e-07 8.58228e-07 8.75345e-07 8.9098e-07 9.05172e-07 9.17975e-07 9.29452e-07 9.39677e-07 9.4873e-07 9.56695e-07 9.63659e-07 9.69711e-07 9.74938e-07 9.79423e-07 9.83248e-07 9.8649e-07 9.89221e-07 9.91506e-07 9.93408e-07 9.9498e-07 9.96272e-07 9.97326e-07 9.98182e-07 9.98872e-07 9.99425e-07 9.99866e-07 1.00021e-06 1.00049e-06 1.0007e-06 1.00087e-06 1.001e-06 1.0011e-06 1.00117e-06 1.00123e-06 1.00127e-06 1.0013e-06 1.00133e-06 1.00135e-06 1.00136e-06 1.00137e-06 1.00138e-06 1.00138e-06 1.00138e-06 1.00139e-06 1.00139e-06 1.00139e-06 1.00139e-06 1.00139e-06 1.00139e-06 1.00139e-06 1.00139e-06 1.00139e-06 1.00139e-06 1.00139e-06 1.00139e-06 1.00139e-06 1.00139e-06 1.00139e-06 1.00139e-06 1.00139e-06 1.00139e-06 1.00138e-06 1.00138e-06 1.00138e-06 1.00137e-06 1.00136e-06 1.00135e-06 1.00133e-06 1.0013e-06 1.00127e-06 1.00123e-06 1.00117e-06 1.0011e-06 1.001e-06 1.00087e-06 1.0007e-06 1.00049e-06 1.00021e-06 9.99866e-07 9.99425e-07 9.98872e-07 9.98182e-07 9.97326e-07 9.96272e-07 9.9498e-07 9.93408e-07 9.91506e-07 9.89221e-07 9.8649e-07 9.83248e-07 9.79423e-07 9.74938e-07 9.69711e-07 9.63659e-07 9.56695e-07 9.4873e-07 9.39677e-07 9.29452e-07 9.17975e-07 9.05172e-07 8.9098e-07 8.75345e-07 8.58228e-07 8.39605e-07 8.1947e-07 7.97835e-07 7.74734e-07 7.5022e-07 7.24369e-07 6.97278e-07 6.69064e-07 6.39864e-07 6.09832e-07 5.79135e-07 5.47955e-07 5.16482e-07 4.8491e-07 4.53437e-07 4.22257e-07 3.9156e-07 3.61528e-07 3.32328e-07 3.04114e-07 2.77023e-07 2.51173e-07 2.26659e-07 2.03557e-07 1.81922e-07 1.61787e-07 1.43164e-07 1.26047e-07 1.10413e-07 9.62204e-08 8.34177e-08 7.19405e-08 6.17155e-08 5.26627e-08 4.46975e-08 3.77329e-08 3.16809e-08 2.64547e-08 2.19697e-08 1.81446e-08 1.49025e-08 1.21718e-08 9.88589e-09 7.98432e-09 6.41225e-09 5.12064e-09 4.06604e-09 3.21029e-09 2.5202e-09 1.96715e-09 1.52667e-09 1.17801e-09 9.03748e-10 6.89338e-10 5.22756e-10 3.94134e-10 2.95434e-10 2.20163e-10 1.63115e-10 1.20144e-10 8.79766e-11 6.4045e-11 4.63502e-11 3.33474e-11 2.38512e-11 1.69583e-11 1.19855e-11 8.41938e-12 5.87685e-12 4.0738e-12 2.80076e-12 1.90403e-12 1.27102e-12 8.19001e-13 4.86451e-13 2.26208e-13 0 
0 3.51109e-13 7.54998e-13 1.27102e-12 1.97229e-12 2.95418e-12 4.34489e-12 6.3189e-12 9.11435e-12 1.30557e-11 1.8583e-11 2.62895e-11 3.69702e-11 5.1683e-11 7.1826e-11 9.9234e-11 1.36298e-10 1.86111e-10 2.52645e-10 3.40966e-10 4.57486e-10 6.10257e-10 8.09322e-10 1.06711e-09 1.39887e-09 1.82321e-09 2.36259e-09 3.04397e-09 3.8994e-09 4.9667e-09 6.29009e-09 7.92086e-09 9.91796e-09 1.23485e-08 1.52883e-08 1.88219e-08 2.30429e-08 2.80539e-08 3.39657e-08 4.0897e-08 4.89732e-08 5.83249e-08 6.90863e-08 8.1393e-08 9.53794e-08 1.11176e-07 1.28906e-07 1.48683e-07 1.70606e-07 1.94756e-07 2.21195e-07 2.49958e-07 2.81057e-07 3.1447e-07 3.50148e-07 3.88006e-07 4.27928e-07 4.69764e-07 5.13334e-07 5.58426e-07 6.04803e-07 6.52205e-07 7.00353e-07 7.48954e-07 7.97707e-07 8.46308e-07 8.94456e-07 9.41858e-07 9.88235e-07 1.03333e-06 1.0769e-06 1.11873e-06 1.15866e-06 1.19651e-06 1.23219e-06 1.2656e-06 1.2967e-06 1.32547e-06 1.3519e-06 1.37606e-06 1.39798e-06 1.41775e-06 1.43549e-06 1.45128e-06 1.46527e-06 1.47757e-06 1.48834e-06 1.49769e-06 1.50576e-06 1.5127e-06 1.51861e-06 1.52362e-06 1.52784e-06 1.53137e-06 1.53431e-06 1.53674e-06 1.53874e-06 1.54037e-06 1.54169e-06 1.54276e-06 1.54362e-06 1.5443e-06 1.54484e-06 1.54526e-06 1.54559e-06 1.54585e-06 1.54605e-06 1.5462e-06 1.54632e-06 1.54641e-06 1.54648e-06 1.54653e-06 1.54656e-06 1.54659e-06 1.54661e-06 1.54662e-06 1.54664e-06 1.54664e-06 1.54665e-06 1.54665e-06 1.54666e-06 1.54666e-06 1.54666e-06 1.54666e-06 1.54666e-06 1.54666e-06 1.54666e-06 1.54666e-06 1.54666e-06 1.54666e-06 1.54666e-06 1.54666e-06 1.54666e-06 1.54666e-06 1.54666e-06 1.54666e-06 1.54665e-06 1.54665e-06 1.54664e-06 1.54664e-06 1.54662e-06 1.54661e-06 1.54659e-06 1.54656e-06 1.54653e-06 1.54648e-06 1.54641e-06 1.54632e-06 1.5462e-06 1.54605e-06 1.54585e-06 1.54559e-06 1.54526e-06 1.54484e-06 1.5443e-06 1.54362e-06 1.54276e-06 1.54169e-06 1.54037e-06 1.53874e-06 1.53674e-06 1.53431e-06 1.53137e-06 1.52784e-06 1.52362e-06 1.51861e-06 1.5127e-06 1.50576e-06 1.49769e-06 1.48834e-06 1.47757e-06 1.46527e-06 1.45128e-06 1.43549e-06 1.41775e-06 1.39798e-06 1.37606e-06 1.3519e-06 1.32547e-06 1.2967e-06 1.2656e-06 1.23219e-06 1.19651e-06 1.15866e-06 1.11873e-06 1.0769e-06 1.03333e-06 9.88235e-07 9.41858e-07 8.94456e-07 8.46308e-07 7.97707e-07 7.48954e-07 7.00353e-07 6.52205e-07 6.04803e-07 5.58426e-07 5.13334e-07 4.69764e-07 4.27928e-07 3.88006e-07 3.50148e-07 3.1447e-07 2.81057e-07 2.49958e-07 2.21195e-07 1.94756e-07 1.70606e-07 1.48683e-07 1.28906e-07 1.11176e-07 9.53794e-08 8.1393e-08 6.90863e-08 5.83249e-08 4.89732e-08 4.0897e-08 3.39657e-08 2.80539e-08 2.30429e-08 1.88219e-08 1.52883e-08 1.23485e-08 9.91796e-09 7.92086e-09 6.29009e-09 4.9667e-09 3.8994e-09 3.04397e-09 2.36259e-09 1.82321e-09 1.39887e-09 1.06711e-09 8.09322e-10 6.10257e-10 4.57486e-10 3.40966e-10 2.52645e-10 1.86111e-10 1.36298e-10 9.9234e-11 7.1826e-11 5.1683e-11 3.69702e-11 2.62895e-11 1.8583e-11 1.30557e-11 9.11435e-12 6.3189e-12 4.34489e-12 2.95418e-12 1.97229e-12 1.27102e-12 7.54998e-13 3.51109e-13 0 
0 5.26064e-13 1.13113e-12 1.90403e-12 2.95418e-12 4.42426e-12 6.50604e-12 9.46042e-12 1.36435e-11 1.95403e-11 2.78086e-11 3.93351e-11 5.53076e-11 7.73065e-11 1.0742e-10 1.4839e-10 2.03784e-10 2.78224e-10 3.77638e-10 5.09588e-10 6.83644e-10 9.11824e-10 1.20911e-09 1.59405e-09 2.0894e-09 2.72289e-09 3.52804e-09 4.54505e-09 5.82171e-09 7.41439e-09 9.38904e-09 1.18221e-08 1.48014e-08 1.84271e-08 2.28119e-08 2.80821e-08 3.4377e-08 4.18494e-08 5.06644e-08 6.09988e-08 7.30393e-08 8.69805e-08 1.03022e-07 1.21366e-07 1.42213e-07 1.65757e-07 1.92181e-07 2.21654e-07 2.54323e-07 2.90309e-07 3.29704e-07 3.72562e-07 4.18896e-07 4.68679e-07 5.21834e-07 5.78235e-07 6.3771e-07 7.00036e-07 7.64942e-07 8.32115e-07 9.01202e-07 9.71814e-07 1.04354e-06 1.11594e-06 1.18856e-06 1.26096e-06 1.33268e-06 1.4033e-06 1.47238e-06 1.53956e-06 1.60446e-06 1.66679e-06 1.72626e-06 1.78266e-06 1.83582e-06 1.8856e-06 1.93194e-06 1.97479e-06 2.01419e-06 2.05017e-06 2.08284e-06 2.11232e-06 2.13874e-06 2.16228e-06 2.18313e-06 2.20147e-06 2.21752e-06 2.23146e-06 2.2435e-06 2.25383e-06 2.26265e-06 2.27012e-06 2.27642e-06 2.28169e-06 2.28607e-06 2.2897e-06 2.29268e-06 2.29511e-06 2.29708e-06 2.29868e-06 2.29995e-06 2.30097e-06 2.30177e-06 2.30241e-06 2.3029e-06 2.30329e-06 2.30359e-06 2.30381e-06 2.30399e-06 2.30412e-06 2.30422e-06 2.30429e-06 2.30435e-06 2.30439e-06 2.30442e-06 2.30444e-06 2.30446e-06 2.30447e-06 2.30448e-06 2.30448e-06 2.30449e-06 2.30449e-06 2.30449e-06 2.30449e-06 2.30449e-06 2.3045e-06 2.3045e-06 2.3045e-06 2.3045e-06 2.3045e-06 2.3045e-06 2.30449e-06 2.30449e-06 2.30449e-06 2.30449e-06 2.30449e-06 2.30448e-06 2.30448e-06 2.30447e-06 2.30446e-06 2.30444e-06 2.30442e-06 2.30439e-06 2.30435e-06 2.30429e-06 2.30422e-06 2.30412e-06 2.30399e-06 2.30381e-06 2.30359e-06 2.30329e-06 2.3029e-06 2.30241e-06 2.30177e-06 2.30097e-06 2.29995e-06 2.29868e-06 2.29708e-06 2.29511e-06 2.29268e-06 2.2897e-06 2.28607e-06 2.28169e-06 2.27642e-06 2.27012e-06 2.26265e-06 2.25383e-06 2.2435e-06 2.23146e-06 2.21752e-06 2.20147e-06 2.18313e-06 2.16228e-06 2.13874e-06 2.11232e-06 2.08284e-06 2.05017e-06 2.01419e-06 1.97479e-06 1.93194e-06 1.8856e-06 1.83582e-06 1.78266e-06 1.72626e-06 1.66679e-06 1.60446e-06 1.53956e-06 1.47238e-06 1.4033e-06 1.33268e-06 1.26096e-06 1.18856e-06 1.11594e-06 1.04354e-06 9.71814e-07 9.01202e-07 8.32115e-07 7.64942e-07 7.00036e-07 6.3771e-07 5.78235e-07 5.21834e-07 4.68679e-07 4.18896e-07 3.72562e-07 3.29704e-07 2.90309e-07 2.54323e-07 2.21654e-07 1.92181e-07 1.65757e-07 1.42213e-07 1.21366e-07 1.03022e-07 8.69805e-08 7.30393e-08 6.09988e-08 5.06644e-08 4.18494e-08 3.4377e-08 2.80821e-08 2.28119e-08 1.84271e-08 1.48014e-08 1.18221e-08 9.38904e-09 7.41439e-09 5.82171e-09 4.54505e-09 3.52804e-09 2.72289e-09 2.0894e-09 1.59405e-09 1.20911e-09 9.11824e-10 6.83644e-10 5.09588e-10 3.77638e-10 2.78224e-10 2.03784e-10 1.4839e-10 1.0742e-10 7.73065e-11 5.53076e-11 3.93351e-11 2.78086e-11 1.95403e-11 1.36435e-11 9.46042e-12 6.50604e-12 4.42426e-12 2.95418e-12 1.90403e-12 1.13113e-12 5.26064e-13 0 
0 7.73959e-13 1.66404e-12 2.80076e-12 4.34489e-12 6.50604e-12 9.5658e-12 1.39073e-11 2.00533e-11 2.87156e-11 4.08596e-11 5.77862e-11 8.12379e-11 1.13533e-10 1.57734e-10 2.17859e-10 2.99144e-10 4.08356e-10 5.54191e-10 7.47727e-10 1.00298e-09 1.33757e-09 1.77344e-09 2.33774e-09 3.06381e-09 3.99226e-09 5.17215e-09 6.66233e-09 8.53275e-09 1.08659e-08 1.37584e-08 1.73219e-08 2.16851e-08 2.69943e-08 3.34146e-08 4.11305e-08 5.0346e-08 6.12842e-08 7.41868e-08 8.93121e-08 1.06933e-07 1.27334e-07 1.50808e-07 1.77649e-07 2.08149e-07 2.42594e-07 2.8125e-07 3.24364e-07 3.72151e-07 4.24788e-07 4.82409e-07 5.45091e-07 6.12856e-07 6.85662e-07 7.63396e-07 8.45876e-07 9.32849e-07 1.02399e-06 1.1189e-06 1.21712e-06 1.31814e-06 1.42139e-06 1.52627e-06 1.63213e-06 1.73832e-06 1.84418e-06 1.94905e-06 2.05231e-06 2.15333e-06 2.25155e-06 2.34646e-06 2.4376e-06 2.52457e-06 2.60705e-06 2.68479e-06 2.75759e-06 2.82536e-06 2.88804e-06 2.94566e-06 2.9983e-06 3.04608e-06 3.0892e-06 3.12785e-06 3.1623e-06 3.1928e-06 3.21964e-06 3.24311e-06 3.26351e-06 3.28114e-06 3.29626e-06 3.30916e-06 3.3201e-06 3.32932e-06 3.33703e-06 3.34345e-06 3.34876e-06 3.35313e-06 3.35669e-06 3.35958e-06 3.36192e-06 3.36379e-06 3.36528e-06 3.36646e-06 3.36738e-06 3.36811e-06 3.36867e-06 3.36911e-06 3.36945e-06 3.3697e-06 3.36989e-06 3.37004e-06 3.37015e-06 3.37023e-06 3.37029e-06 3.37033e-06 3.37037e-06 3.37039e-06 3.37041e-06 3.37042e-06 3.37043e-06 3.37043e-06 3.37044e-06 3.37044e-06 3.37044e-06 3.37045e-06 3.37045e-06 3.37045e-06 3.37045e-06 3.37045e-06 3.37045e-06 3.37045e-06 3.37045e-06 3.37044e-06 3.37044e-06 3.37044e-06 3.37043e-06 3.37043e-06 3.37042e-06 3.37041e-06 3.37039e-06 3.37037e-06 3.37033e-06 3.37029e-06 3.37023e-06 3.37015e-06 3.37004e-06 3.36989e-06 3.3697e-06 3.36945e-06 3.36911e-06 3.36867e-06 3.36811e-06 3.36738e-06 3.36646e-06 3.36528e-06 3.36379e-06 3.36192e-06 3.35958e-06 3.35669e-06 3.35313e-06 3.34876e-06 3.34345e-06 3.33703e-06 3.32932e-06 3.3201e-06 3.30916e-06 3.29626e-06 3.28114e-06 3.26351e-06 3.24311e-06 3.21964e-06 3.1928e-06 3.1623e-06 3.12785e-06 3.0892e-06 3.04608e-06 2.9983e-06 2.94566e-06 2.88804e-06 2.82536e-06 2.75759e-06 2.68479e-06 2.60705e-06 2.52457e-06 2.4376e-06 2.34646e-06 2.25155e-06 2.15333e-06 2.05231e-06 1.94905e-06 1.84418e-06 1.73832e-06 1.63213e-06 1.52627e-06 1.42139e-06 1.31814e-06 1.21712e-06 1.1189e-06 1.02399e-06 9.32849e-07 8.45876e-07 7.63396e-07 6.85662e-07 6.12856e-07 5.45091e-07 4.82409e-07 4.24788e-07 3.72151e-07 3.24364e-07 2.8125e-07 2.42594e-07 2.08149e-07 1.77649e-07 1.50808e-07 1.27334e-07 1.06933e-07 8.93121e-08 7.41868e-08 6.12842e-08 5.0346e-08 4.11305e-08 3.34146e-08 2.69943e-08 2.16851e-08 1.73219e-08 1.37584e-08 1.08659e-08 8.53275e-09 6.66233e-09 5.17215e-09 3.99226e-09 3.06381e-09 2.33774e-09 1.77344e-09 1.33757e-09 1.00298e-09 7.47727e-10 5.54191e-10 4.08356e-10 2.99144e-10 2.17859e-10 1.57734e-10 1.13533e-10 8.12379e-11 5.77862e-11 4.08596e-11 2.87156e-11 2.00533e-11 1.39073e-11 9.5658e-12 6.50604e-12 4.34489e-12 2.80076e-12 1.66404e-12 7.73959e-13 0 
0 1.12596e-12 2.42066e-12 4.0738e-12 6.3189e-12 9.46042e-12 1.39073e-11 2.02157e-11 2.91445e-11 4.17268e-11 5.93632e-11 8.3941e-11 1.17988e-10 1.64866e-10 2.29016e-10 3.16263e-10 4.34196e-10 5.92626e-10 8.04151e-10 1.08482e-09 1.45496e-09 1.94005e-09 2.5719e-09 3.38983e-09 4.4421e-09 5.7875e-09 7.49706e-09 9.65594e-09 1.23654e-08 1.57448e-08 1.99338e-08 2.50941e-08 3.14118e-08 3.90985e-08 4.83931e-08 5.95621e-08 7.29006e-08 8.87313e-08 1.07403e-07 1.29291e-07 1.54787e-07 1.84304e-07 2.18264e-07 2.57092e-07 3.01213e-07 3.51034e-07 4.06945e-07 4.693e-07 5.3841e-07 6.14531e-07 6.97854e-07 7.88493e-07 8.86479e-07 9.91749e-07 1.10414e-06 1.22339e-06 1.34913e-06 1.4809e-06 1.61811e-06 1.76011e-06 1.90615e-06 2.05542e-06 2.20703e-06 2.36006e-06 2.51357e-06 2.66661e-06 2.81822e-06 2.96748e-06 3.11352e-06 3.25553e-06 3.39274e-06 3.5245e-06 3.65024e-06 3.76949e-06 3.88189e-06 3.98716e-06 4.08514e-06 4.17578e-06 4.2591e-06 4.33522e-06 4.40433e-06 4.46669e-06 4.5226e-06 4.57242e-06 4.61654e-06 4.65537e-06 4.68933e-06 4.71885e-06 4.74434e-06 4.76623e-06 4.7849e-06 4.80073e-06 4.81407e-06 4.82524e-06 4.83454e-06 4.84222e-06 4.84854e-06 4.8537e-06 4.85789e-06 4.86127e-06 4.86398e-06 4.86614e-06 4.86785e-06 4.86919e-06 4.87025e-06 4.87106e-06 4.87169e-06 4.87218e-06 4.87255e-06 4.87283e-06 4.87304e-06 4.8732e-06 4.87332e-06 4.87341e-06 4.87347e-06 4.87352e-06 4.87355e-06 4.87358e-06 4.87359e-06 4.87361e-06 4.87361e-06 4.87362e-06 4.87363e-06 4.87363e-06 4.87363e-06 4.87363e-06 4.87363e-06 4.87363e-06 4.87363e-06 4.87363e-06 4.87363e-06 4.87363e-06 4.87363e-06 4.87363e-06 4.87362e-06 4.87361e-06 4.87361e-06 4.87359e-06 4.87358e-06 4.87355e-06 4.87352e-06 4.87347e-06 4.87341e-06 4.87332e-06 4.8732e-06 4.87304e-06 4.87283e-06 4.87255e-06 4.87218e-06 4.87169e-06 4.87106e-06 4.87025e-06 4.86919e-06 4.86785e-06 4.86614e-06 4.86398e-06 4.86127e-06 4.85789e-06 4.8537e-06 4.84854e-06 4.84222e-06 4.83454e-06 4.82524e-06 4.81407e-06 4.80073e-06 4.7849e-06 4.76623e-06 4.74434e-06 4.71885e-06 4.68933e-06 4.65537e-06 4.61654e-06 4.57242e-06 4.5226e-06 4.46669e-06 4.40433e-06 4.33522e-06 4.2591e-06 4.17578e-06 4.08514e-06 3.98716e-06 3.88189e-06 3.76949e-06 3.65024e-06 3.5245e-06 3.39274e-06 3.25553e-06 3.11352e-06 2.96748e-06 2.81822e-06 2.66661e-06 2.51357e-06 2.36006e-06 2.20703e-06 2.05542e-06 1.90615e-06 1.76011e-06 1.61811e-06 1.4809e-06 1.34913e-06 1.22339e-06 1.10414e-06 9.91749e-07 8.86479e-07 7.88493e-07 6.97854e-07 6.14531e-07 5.3841e-07 4.693e-07 4.06945e-07 3.51034e-07 3.01213e-07 2.57092e-07 2.18264e-07 1.84304e-07 1.54787e-07 1.29291e-07 1.07403e-07 8.87313e-08 7.29006e-08 5.95621e-08 4.83931e-08 3.90985e-08 3.14118e-08 2.50941e-08 1.99338e-08 1.57448e-08 1.23654e-08 9.65594e-09 7.49706e-09 5.7875e-09 4.4421e-09 3.38983e-09 2.5719e-09 1.94005e-09 1.45496e-09 1.08482e-09 8.04151e-10 5.92626e-10 4.34196e-10 3.16263e-10 2.29016e-10 1.64866e-10 1.17988e-10 8.3941e-11 5.93632e-11 4.17268e-11 2.91445e-11 2.02157e-11 1.39073e-11 9.46042e-12 6.3189e-12 4.0738e-12 2.42066e-12 1.12596e-12 0 
0 1.6246e-12 3.49244e-12 5.87685e-12 9.11435e-12 1.36435e-11 2.00533e-11 2.91445e-11 4.20096e-11 6.01357e-11 8.55382e-11 1.20933e-10 1.69955e-10 2.37442e-10 3.29779e-10 4.55343e-10 6.25042e-10 8.5298e-10 1.15726e-09 1.56096e-09 2.09325e-09 2.79077e-09 3.6992e-09 4.87499e-09 6.38746e-09 8.32102e-09 1.07776e-08 1.38795e-08 1.77721e-08 2.26266e-08 2.86433e-08 3.60545e-08 4.51269e-08 5.61642e-08 6.95088e-08 8.55433e-08 1.04691e-07 1.27413e-07 1.54212e-07 1.85623e-07 2.22211e-07 2.64565e-07 3.13291e-07 3.68999e-07 4.32294e-07 5.03765e-07 5.83966e-07 6.73406e-07 7.72529e-07 8.81703e-07 1.0012e-06 1.13119e-06 1.2717e-06 1.42266e-06 1.58382e-06 1.75481e-06 1.93511e-06 2.12403e-06 2.32076e-06 2.52436e-06 2.73375e-06 2.94775e-06 3.16512e-06 3.38452e-06 3.60462e-06 3.82402e-06 4.04139e-06 4.25539e-06 4.46478e-06 4.66838e-06 4.86511e-06 5.05403e-06 5.23433e-06 5.40532e-06 5.56649e-06 5.71744e-06 5.85796e-06 5.98794e-06 6.10744e-06 6.21661e-06 6.31574e-06 6.40518e-06 6.48538e-06 6.55685e-06 6.62014e-06 6.67585e-06 6.72458e-06 6.76693e-06 6.80352e-06 6.83493e-06 6.86173e-06 6.88445e-06 6.9036e-06 6.91963e-06 6.93298e-06 6.94402e-06 6.95309e-06 6.9605e-06 6.96652e-06 6.97137e-06 6.97526e-06 6.97836e-06 6.98082e-06 6.98275e-06 6.98427e-06 6.98544e-06 6.98635e-06 6.98705e-06 6.98758e-06 6.98799e-06 6.98829e-06 6.98852e-06 6.98869e-06 6.98881e-06 6.9889e-06 6.98897e-06 6.98902e-06 6.98906e-06 6.98908e-06 6.9891e-06 6.98911e-06 6.98912e-06 6.98913e-06 6.98913e-06 6.98913e-06 6.98914e-06 6.98914e-06 6.98914e-06 6.98914e-06 6.98914e-06 6.98914e-06 6.98913e-06 6.98913e-06 6.98913e-06 6.98912e-06 6.98911e-06 6.9891e-06 6.98908e-06 6.98906e-06 6.98902e-06 6.98897e-06 6.9889e-06 6.98881e-06 6.98869e-06 6.98852e-06 6.98829e-06 6.98799e-06 6.98758e-06 6.98705e-06 6.98635e-06 6.98544e-06 6.98427e-06 6.98275e-06 6.98082e-06 6.97836e-06 6.97526e-06 6.97137e-06 6.96652e-06 6.9605e-06 6.95309e-06 6.94402e-06 6.93298e-06 6.91963e-06 6.9036e-06 6.88445e-06 6.86173e-06 6.83493e-06 6.80352e-06 6.76693e-06 6.72458e-06 6.67585e-06 6.62014e-06 6.55685e-06 6.48538e-06 6.40518e-06 6.31574e-06 6.21661e-06 6.10744e-06 5.98794e-06 5.85796e-06 5.71744e-06 5.56649e-06 5.40532e-06 5.23433e-06 5.05403e-06 4.86511e-06 4.66838e-06 4.46478e-06 4.25539e-06 4.04139e-06 3.82402e-06 3.60462e-06 3.38452e-06 3.16512e-06 2.94775e-06 2.73375e-06 2.52436e-06 2.32076e-06 2.12403e-06 1.93511e-06 1.75481e-06 1.58382e-06 1.42266e-06 1.2717e-06 1.13119e-06 1.0012e-06 8.81703e-07 7.72529e-07 6.73406e-07 5.83966e-07 5.03765e-07 4.32294e-07 3.68999e-07 3.13291e-07 2.64565e-07 2.22211e-07 1.85623e-07 1.54212e-07 1.27413e-07 1.04691e-07 8.55433e-08 6.95088e-08 5.61642e-08 4.51269e-08 3.60545e-08 2.86433e-08 2.26266e-08 1.77721e-08 1.38795e-08 1.07776e-08 8.32102e-09 6.38746e-09 4.87499e-09 3.6992e-09 2.79077e-09 2.09325e-09 1.56096e-09 1.15726e-09 8.5298e-10 6.25042e-10 4.55343e-10 3.29779e-10 2.37442e-10 1.69955e-10 1.20933e-10 8.55382e-11 6.01357e-11 4.20096e-11 2.91445e-11 2.00533e-11 1.36435e-11 9.11435e-12 5.87685e-12 3.49244e-12 1.6246e-12 0 
0 2.3279e-12 5.00395e-12 8.41938e-12 1.30557e-11 1.95404e-11 2.87156e-11 4.17268e-11 6.01357e-11 8.60679e-11 1.22404e-10 1.73024e-10 2.43123e-10 3.39608e-10 4.71601e-10 6.51062e-10 8.93567e-10 1.21925e-09 1.65395e-09 2.23058e-09 2.9908e-09 3.98686e-09 5.28392e-09 6.96251e-09 9.12148e-09 1.18812e-08 1.5387e-08 1.98132e-08 2.53669e-08 3.22923e-08 4.08748e-08 5.14454e-08 6.4384e-08 8.01232e-08 9.91508e-08 1.22012e-07 1.49308e-07 1.81699e-07 2.19898e-07 2.64666e-07 3.16809e-07 3.77165e-07 4.46595e-07 5.2597e-07 6.1615e-07 7.17971e-07 8.32223e-07 9.5963e-07 1.10082e-06 1.25633e-06 1.42652e-06 1.61165e-06 1.81177e-06 2.02675e-06 2.25625e-06 2.49975e-06 2.75649e-06 3.02551e-06 3.30565e-06 3.59555e-06 3.89369e-06 4.1984e-06 4.5079e-06 4.8203e-06 5.13368e-06 5.44608e-06 5.75558e-06 6.0603e-06 6.35844e-06 6.64834e-06 6.92847e-06 7.19749e-06 7.45423e-06 7.69773e-06 7.92724e-06 8.14221e-06 8.34233e-06 8.52746e-06 8.69766e-06 8.85316e-06 8.99435e-06 9.12176e-06 9.23601e-06 9.33783e-06 9.42801e-06 9.50739e-06 9.57682e-06 9.63717e-06 9.68932e-06 9.73409e-06 9.77228e-06 9.80467e-06 9.83197e-06 9.85483e-06 9.87386e-06 9.8896e-06 9.90254e-06 9.91311e-06 9.92169e-06 9.92862e-06 9.93417e-06 9.9386e-06 9.9421e-06 9.94486e-06 9.94702e-06 9.9487e-06 9.95e-06 9.95099e-06 9.95175e-06 9.95233e-06 9.95277e-06 9.95309e-06 9.95333e-06 9.95351e-06 9.95364e-06 9.95374e-06 9.95381e-06 9.95386e-06 9.9539e-06 9.95392e-06 9.95394e-06 9.95395e-06 9.95396e-06 9.95397e-06 9.95397e-06 9.95398e-06 9.95398e-06 9.95398e-06 9.95398e-06 9.95398e-06 9.95398e-06 9.95397e-06 9.95397e-06 9.95396e-06 9.95395e-06 9.95394e-06 9.95392e-06 9.9539e-06 9.95386e-06 9.95381e-06 9.95374e-06 9.95364e-06 9.95351e-06 9.95333e-06 9.95309e-06 9.95277e-06 9.95233e-06 9.95175e-06 9.95099e-06 9.95e-06 9.9487e-06 9.94702e-06 9.94486e-06 9.9421e-06 9.9386e-06 9.93417e-06 9.92862e-06 9.92169e-06 9.91311e-06 9.90254e-06 9.8896e-06 9.87386e-06 9.85483e-06 9.83197e-06 9.80467e-06 9.77228e-06 9.73409e-06 9.68932e-06 9.63717e-06 9.57682e-06 9.50739e-06 9.42801e-06 9.33783e-06 9.23601e-06 9.12176e-06 8.99435e-06 8.85316e-06 8.69766e-06 8.52746e-06 8.34233e-06 8.14221e-06 7.92724e-06 7.69773e-06 7.45423e-06 7.19749e-06 6.92847e-06 6.64834e-06 6.35844e-06 6.0603e-06 5.75558e-06 5.44608e-06 5.13368e-06 4.8203e-06 4.5079e-06 4.1984e-06 3.89369e-06 3.59555e-06 3.30565e-06 3.02551e-06 2.75649e-06 2.49975e-06 2.25625e-06 2.02675e-06 1.81177e-06 1.61165e-06 1.42652e-06 1.25633e-06 1.10082e-06 9.5963e-07 8.32223e-07 7.17971e-07 6.1615e-07 5.2597e-07 4.46595e-07 3.77165e-07 3.16809e-07 2.64666e-07 2.19898e-07 1.81699e-07 1.49308e-07 1.22012e-07 9.91508e-08 8.01232e-08 6.4384e-08 5.14454e-08 4.08748e-08 3.22923e-08 2.53669e-08 1.98132e-08 1.5387e-08 1.18812e-08 9.12148e-09 6.96251e-09 5.28392e-09 3.98686e-09 2.9908e-09 2.23058e-09 1.65395e-09 1.21925e-09 8.93567e-10 6.51062e-10 4.71601e-10 3.39608e-10 2.43123e-10 1.73024e-10 1.22404e-10 8.60679e-11 6.01357e-11 4.17268e-11 2.87156e-11 1.95404e-11 1.30557e-11 8.41938e-12 5.00395e-12 2.3279e-12 0 