<?xml version="1.0"?>
<VTKFile type="ImageData" version="0.1" byte_order="LittleEndian">
  <ImageData WholeExtent="0 255 0 255 0 0" Origin="0 0 0" Spacing="1 1 1">
  <Piece Extent="0 255 0 255 0 0">
    <PointData>
      <DataArray type="Float32" Name="scalar_data" format="ascii" >0 0 0 0 0 0 0 0 0 0 0 0 0 0 0 0 0 0 0 0 0 0 0 0 0 0 0 0 0 0 0 0 0 0 0 0 0 0 0 0 0 0 0 0 0 0 0 0 0 0 0 0 0 0 0 0 0 0 0 0 0 0 0 0 0 0 0 0 0 0 0 0 0 0 0 0 0 0 0 0 0 0 0 0 0 0 0 0 0 0 0 0 0 0 0 0 0 0 0 0 0 0 0 0 0 0 0 0 0 0 0 0 0 0 0 0 0 0 0 0 0 0 0 0 0 0 0 0 0 0 0 0 0 0 0 0 0 0 0 0 0 0 0 0 0 0 0 0 0 0 0 0 0 0 0 0 0 0 0 0 0 0 0 0 0 0 0 0 0 0 0 0 0 0 0 0 0 0 0 0 0 0 0 0 0 0 0 0 0 0 0 0 0 0 0 0 0 0 0 0 0 0 0 0 0 0 0 0 0 0 0 0 0 0 0 0 0 0 0 0 0 0 0 0 0 0 0 0 0 0 0 0 0 0 0 0 0 0 0 0 0 0 0 0 0 0 0 0 0 0 0 0 0 0 0 0 
0 8.63713e-13 1.82934e-12 3.00847e-12 4.53274e-12 6.56556e-12 9.31592e-12 1.30552e-11 1.81379e-11 2.50268e-11 3.43249e-11 4.68145e-11 6.35043e-11 8.56883e-11 1.15016e-10 1.53577e-10 2.04001e-10 2.69575e-10 3.54387e-10 4.63476e-10 6.03021e-10 7.80547e-10 1.00515e-09 1.28775e-09 1.64136e-09 2.08141e-09 2.62601e-09 3.29629e-09 4.1167e-09 5.11536e-09 6.32429e-09 7.7797e-09 9.52221e-09 1.15969e-08 1.40536e-08 1.69465e-08 2.03343e-08 2.42798e-08 2.88494e-08 3.41127e-08 4.01415e-08 4.7009e-08 5.47888e-08 6.35533e-08 7.33727e-08 8.43131e-08 9.64353e-08 1.09793e-07 1.2443e-07 1.4038e-07 1.57667e-07 1.76297e-07 1.96264e-07 2.17546e-07 2.40104e-07 2.63883e-07 2.88809e-07 3.14794e-07 3.41733e-07 3.69507e-07 3.97982e-07 4.27016e-07 4.56455e-07 4.8614e-07 5.15907e-07 5.45592e-07 5.75031e-07 6.04064e-07 6.3254e-07 6.60313e-07 6.87252e-07 7.13238e-07 7.38164e-07 7.61943e-07 7.84501e-07 8.05783e-07 8.2575e-07 8.4438e-07 8.61666e-07 8.77617e-07 8.92254e-07 9.05611e-07 9.17733e-07 9.28674e-07 9.38493e-07 9.47258e-07 9.55038e-07 9.61905e-07 9.67934e-07 9.73197e-07 9.77767e-07 9.81712e-07 9.851e-07 9.87993e-07 9.9045e-07 9.92524e-07 9.94267e-07 9.95722e-07 9.96931e-07 9.9793e-07 9.9875e-07 9.99421e-07 9.99965e-07 1.00041e-06 1.00076e-06 1.00104e-06 1.00127e-06 1.00144e-06 1.00158e-06 1.00169e-06 1.00178e-06 1.00184e-06 1.00189e-06 1.00193e-06 1.00196e-06 1.00198e-06 1.002e-06 1.00201e-06 1.00202e-06 1.00203e-06 1.00203e-06 1.00204e-06 1.00204e-06 1.00204e-06 1.00204e-06 1.00204e-06 1.00204e-06 1.00204e-06 1.00204e-06 1.00204e-06 1.00204e-06 1.00204e-06 1.00204e-06 1.00204e-06 1.00204e-06 1.00203e-06 1.00203e-06 1.00202e-06 1.00201e-06 1.002e-06 1.00198e-06 1.00196e-06 1.00193e-06 1.00189e-06 1.00184e-06 1.00178e-06 1.00169e-06 1.00158e-06 1.00144e-06 1.00127e-06 1.00104e-06 1.00076e-06 1.00041e-06 9.99965e-07 9.99421e-07 9.9875e-07 9.9793e-07 9.96931e-07 9.95722e-07 9.94267e-07 9.92524e-07 9.9045e-07 9.87993e-07 9.851e-07 9.81712e-07 9.77767e-07 9.73197e-07 9.67934e-07 9.61905e-07 9.55038e-07 9.47258e-07 9.38493e-07 9.28674e-07 9.17733e-07 9.05611e-07 8.92254e-07 8.77617e-07 8.61666e-07 8.4438e-07 8.2575e-07 8.05783e-07 7.84501e-07 7.61943e-07 7.38164e-07 7.13238e-07 6.87252e-07 6.60313e-07 6.3254e-07 6.04064e-07 5.75031e-07 5.45592e-07 5.15907e-07 4.8614e-07 4.56455e-07 4.27016e-07 3.97982e-07 3.69507e-07 3.41733e-07 3.14794e-07 2.88809e-07 2.63883e-07 2.40104e-07 2.17546e-07 1.96264e-07 1.76297e-07 1.57667e-07 1.4038e-07 1.2443e-07 1.09793e-07 9.64353e-08 8.43131e-08 7.33727e-08 6.35533e-08 5.47888e-08 4.7009e-08 4.01415e-08 3.41127e-08 2.88494e-08 2.42798e-08 2.03343e-08 1.69465e-08 1.40536e-08 1.15969e-08 9.52221e-09 7.7797e-09 6.32429e-09 5.11536e-09 4.1167e-09 3.29629e-09 2.62601e-09 2.08141e-09 1.64136e-09 1.28775e-09 1.00515e-09 7.80547e-10 6.03021e-10 4.63476e-10 3.54387e-10 2.69575e-10 2.04001e-10 1.53577e-10 1.15016e-10 8.56883e-11 6.35043e-11 4.68145e-11 3.43249e-11 2.50268e-11 1.81379e-11 1.30552e-11 9.31592e-12 6.56556e-12 4.53274e-12 3.00847e-12 1.82934e-12 8.63713e-13 0 
0 1.82934e-12 3.87445e-12 6.37162e-12 9.59953e-12 1.39041e-11 1.97278e-11 2.76451e-11 3.84061e-11 5.29905e-11 7.26748e-11 9.91139e-11 1.34443e-10 1.814e-10 2.43476e-10 3.25092e-10 4.31811e-10 5.70591e-10 7.50076e-10 9.8093e-10 1.27623e-09 1.65188e-09 2.12713e-09 2.72507e-09 3.47326e-09 4.4043e-09 5.5565e-09 6.97454e-09 8.71017e-09 1.08228e-08 1.33802e-08 1.64589e-08 2.01449e-08 2.45335e-08 2.97298e-08 3.58487e-08 4.30142e-08 5.13591e-08 6.10238e-08 7.21554e-08 8.49058e-08 9.94297e-08 1.15883e-07 1.34418e-07 1.55183e-07 1.78319e-07 2.03954e-07 2.322e-07 2.63152e-07 2.96881e-07 3.33434e-07 3.72828e-07 4.15049e-07 4.6005e-07 5.07749e-07 5.58028e-07 6.10734e-07 6.65678e-07 7.22639e-07 7.81364e-07 8.41573e-07 9.02961e-07 9.65207e-07 1.02797e-06 1.09091e-06 1.15368e-06 1.21593e-06 1.27731e-06 1.33752e-06 1.39625e-06 1.45321e-06 1.50815e-06 1.56086e-06 1.61114e-06 1.65884e-06 1.70384e-06 1.74606e-06 1.78545e-06 1.82201e-06 1.85573e-06 1.88669e-06 1.91493e-06 1.94057e-06 1.9637e-06 1.98447e-06 2.003e-06 2.01946e-06 2.03398e-06 2.04673e-06 2.05786e-06 2.06753e-06 2.07587e-06 2.08304e-06 2.08916e-06 2.09435e-06 2.09874e-06 2.10243e-06 2.10551e-06 2.10806e-06 2.11018e-06 2.11191e-06 2.11333e-06 2.11448e-06 2.11541e-06 2.11616e-06 2.11676e-06 2.11723e-06 2.11761e-06 2.11791e-06 2.11814e-06 2.11832e-06 2.11846e-06 2.11856e-06 2.11864e-06 2.11871e-06 2.11875e-06 2.11879e-06 2.11881e-06 2.11883e-06 2.11885e-06 2.11886e-06 2.11887e-06 2.11887e-06 2.11888e-06 2.11888e-06 2.11888e-06 2.11888e-06 2.11888e-06 2.11888e-06 2.11888e-06 2.11888e-06 2.11888e-06 2.11888e-06 2.11887e-06 2.11887e-06 2.11886e-06 2.11885e-06 2.11883e-06 2.11881e-06 2.11879e-06 2.11875e-06 2.11871e-06 2.11864e-06 2.11856e-06 2.11846e-06 2.11832e-06 2.11814e-06 2.11791e-06 2.11761e-06 2.11723e-06 2.11676e-06 2.11616e-06 2.11541e-06 2.11448e-06 2.11333e-06 2.11191e-06 2.11018e-06 2.10806e-06 2.10551e-06 2.10243e-06 2.09874e-06 2.09435e-06 2.08916e-06 2.08304e-06 2.07587e-06 2.06753e-06 2.05786e-06 2.04673e-06 2.03398e-06 2.01946e-06 2.003e-06 1.98447e-06 1.9637e-06 1.94057e-06 1.91493e-06 1.88669e-06 1.85573e-06 1.82201e-06 1.78545e-06 1.74606e-06 1.70384e-06 1.65884e-06 1.61114e-06 1.56086e-06 1.50815e-06 1.45321e-06 1.39625e-06 1.33752e-06 1.27731e-06 1.21593e-06 1.15368e-06 1.09091e-06 1.02797e-06 9.65207e-07 9.02961e-07 8.41573e-07 7.81364e-07 7.22639e-07 6.65678e-07 6.10734e-07 5.58028e-07 5.07749e-07 4.6005e-07 4.15049e-07 3.72828e-07 3.33434e-07 2.96881e-07 2.63152e-07 2.322e-07 2.03954e-07 1.78319e-07 1.55183e-07 1.34418e-07 1.15883e-07 9.94297e-08 8.49058e-08 7.21554e-08 6.10238e-08 5.13591e-08 4.30142e-08 3.58487e-08 2.97298e-08 2.45335e-08 2.01449e-08 1.64589e-08 1.33802e-08 1.08228e-08 8.71017e-09 6.97454e-09 5.5565e-09 4.4043e-09 3.47326e-09 2.72507e-09 2.12713e-09 1.65188e-09 1.27623e-09 9.8093e-10 7.50076e-10 5.70591e-10 4.31811e-10 3.25092e-10 2.43476e-10 1.814e-10 1.34443e-10 9.91139e-11 7.26748e-11 5.29905e-11 3.84061e-11 2.76451e-11 1.97278e-11 1.39041e-11 9.59953e-12 6.37162e-12 3.87445e-12 1.82934e-12 0 
0 3.00847e-12 6.37162e-12 1.04778e-11 1.57851e-11 2.2862e-11 3.24355e-11 4.54495e-11 6.31364e-11 8.71059e-11 1.19454e-10 1.62901e-10 2.20951e-10 2.98103e-10 4.00089e-10 5.34168e-10 7.09476e-10 9.37437e-10 1.23224e-09 1.6114e-09 2.09636e-09 2.71326e-09 3.49368e-09 4.47553e-09 5.70402e-09 7.23265e-09 9.1243e-09 1.14523e-08 1.43015e-08 1.77695e-08 2.19674e-08 2.70209e-08 3.30707e-08 4.02735e-08 4.88017e-08 5.88436e-08 7.06027e-08 8.42967e-08 1.00156e-07 1.18422e-07 1.39343e-07 1.63174e-07 1.90169e-07 2.2058e-07 2.54649e-07 2.92606e-07 3.34662e-07 3.81001e-07 4.31777e-07 4.87109e-07 5.47072e-07 6.11694e-07 6.80953e-07 7.54771e-07 8.33013e-07 9.15487e-07 1.00194e-06 1.09206e-06 1.18549e-06 1.28182e-06 1.38058e-06 1.48127e-06 1.58337e-06 1.68632e-06 1.78955e-06 1.8925e-06 1.9946e-06 2.09529e-06 2.19405e-06 2.29037e-06 2.3838e-06 2.47393e-06 2.56038e-06 2.64285e-06 2.7211e-06 2.79491e-06 2.86417e-06 2.9288e-06 2.98876e-06 3.04409e-06 3.09487e-06 3.14121e-06 3.18326e-06 3.22122e-06 3.25529e-06 3.2857e-06 3.31269e-06 3.33652e-06 3.35745e-06 3.37571e-06 3.39157e-06 3.40527e-06 3.41702e-06 3.42707e-06 3.43559e-06 3.4428e-06 3.44885e-06 3.4539e-06 3.4581e-06 3.46157e-06 3.46442e-06 3.46674e-06 3.46864e-06 3.47016e-06 3.47139e-06 3.47237e-06 3.47315e-06 3.47377e-06 3.47426e-06 3.47464e-06 3.47493e-06 3.47516e-06 3.47533e-06 3.47547e-06 3.47557e-06 3.47565e-06 3.4757e-06 3.47575e-06 3.47578e-06 3.4758e-06 3.47582e-06 3.47583e-06 3.47584e-06 3.47585e-06 3.47585e-06 3.47586e-06 3.47586e-06 3.47586e-06 3.47586e-06 3.47586e-06 3.47586e-06 3.47585e-06 3.47585e-06 3.47584e-06 3.47583e-06 3.47582e-06 3.4758e-06 3.47578e-06 3.47575e-06 3.4757e-06 3.47565e-06 3.47557e-06 3.47547e-06 3.47533e-06 3.47516e-06 3.47493e-06 3.47464e-06 3.47426e-06 3.47377e-06 3.47315e-06 3.47237e-06 3.47139e-06 3.47016e-06 3.46864e-06 3.46674e-06 3.46442e-06 3.46157e-06 3.4581e-06 3.4539e-06 3.44885e-06 3.4428e-06 3.43559e-06 3.42707e-06 3.41702e-06 3.40527e-06 3.39157e-06 3.37571e-06 3.35745e-06 3.33652e-06 3.31269e-06 3.2857e-06 3.25529e-06 3.22122e-06 3.18326e-06 3.14121e-06 3.09487e-06 3.04409e-06 2.98876e-06 2.9288e-06 2.86417e-06 2.79491e-06 2.7211e-06 2.64285e-06 2.56038e-06 2.47393e-06 2.3838e-06 2.29037e-06 2.19405e-06 2.09529e-06 1.9946e-06 1.8925e-06 1.78955e-06 1.68632e-06 1.58337e-06 1.48127e-06 1.38058e-06 1.28182e-06 1.18549e-06 1.09206e-06 1.00194e-06 9.15487e-07 8.33013e-07 7.54771e-07 6.80953e-07 6.11694e-07 5.47072e-07 4.87109e-07 4.31777e-07 3.81001e-07 3.34662e-07 2.92606e-07 2.54649e-07 2.2058e-07 1.90169e-07 1.63174e-07 1.39343e-07 1.18422e-07 1.00156e-07 8.42967e-08 7.06027e-08 5.88436e-08 4.88017e-08 4.02735e-08 3.30707e-08 2.70209e-08 2.19674e-08 1.77695e-08 1.43015e-08 1.14523e-08 9.1243e-09 7.23265e-09 5.70402e-09 4.47553e-09 3.49368e-09 2.71326e-09 2.09636e-09 1.6114e-09 1.23224e-09 9.37437e-10 7.09476e-10 5.34168e-10 4.00089e-10 2.98103e-10 2.20951e-10 1.62901e-10 1.19454e-10 8.71059e-11 6.31364e-11 4.54495e-11 3.24355e-11 2.2862e-11 1.57851e-11 1.04778e-11 6.37162e-12 3.00847e-12 0 
0 4.53274e-12 9.59954e-12 1.57851e-11 2.3779e-11 3.44371e-11 4.88535e-11 6.84487e-11 9.50773e-11 1.31161e-10 1.79854e-10 2.45246e-10 3.32612e-10 4.48716e-10 6.02178e-10 8.03914e-10 1.06766e-09 1.4106e-09 1.85406e-09 2.42437e-09 3.15377e-09 4.08154e-09 5.25514e-09 6.73155e-09 8.57871e-09 1.0877e-08 1.37209e-08 1.72207e-08 2.15037e-08 2.67166e-08 3.30262e-08 4.06213e-08 4.97135e-08 6.05379e-08 7.33534e-08 8.8443e-08 1.06112e-07 1.26687e-07 1.50515e-07 1.77958e-07 2.09388e-07 2.45188e-07 2.8574e-07 3.31422e-07 3.82597e-07 4.39611e-07 5.02778e-07 5.72377e-07 6.4864e-07 7.31742e-07 8.21797e-07 9.18847e-07 1.02286e-06 1.13371e-06 1.25121e-06 1.37506e-06 1.50489e-06 1.64022e-06 1.78052e-06 1.92517e-06 2.07346e-06 2.22466e-06 2.37797e-06 2.53256e-06 2.68758e-06 2.84217e-06 2.99548e-06 3.14668e-06 3.29498e-06 3.43962e-06 3.57992e-06 3.71526e-06 3.84508e-06 3.96893e-06 4.08643e-06 4.19729e-06 4.3013e-06 4.39835e-06 4.48841e-06 4.57151e-06 4.64777e-06 4.71737e-06 4.78054e-06 4.83755e-06 4.88873e-06 4.93441e-06 4.97496e-06 5.01076e-06 5.04219e-06 5.06963e-06 5.09346e-06 5.11404e-06 5.1317e-06 5.14679e-06 5.15961e-06 5.17043e-06 5.17953e-06 5.18712e-06 5.19343e-06 5.19864e-06 5.20293e-06 5.20643e-06 5.20927e-06 5.21157e-06 5.21342e-06 5.21489e-06 5.21607e-06 5.21699e-06 5.21772e-06 5.21829e-06 5.21874e-06 5.21908e-06 5.21934e-06 5.21955e-06 5.2197e-06 5.21981e-06 5.2199e-06 5.21997e-06 5.22002e-06 5.22005e-06 5.22008e-06 5.2201e-06 5.22011e-06 5.22012e-06 5.22013e-06 5.22013e-06 5.22014e-06 5.22014e-06 5.22014e-06 5.22014e-06 5.22013e-06 5.22013e-06 5.22012e-06 5.22011e-06 5.2201e-06 5.22008e-06 5.22005e-06 5.22002e-06 5.21997e-06 5.2199e-06 5.21981e-06 5.2197e-06 5.21955e-06 5.21934e-06 5.21908e-06 5.21874e-06 5.21829e-06 5.21772e-06 5.21699e-06 5.21607e-06 5.21489e-06 5.21342e-06 5.21157e-06 5.20927e-06 5.20643e-06 5.20293e-06 5.19864e-06 5.19343e-06 5.18712e-06 5.17953e-06 5.17043e-06 5.15961e-06 5.14679e-06 5.1317e-06 5.11404e-06 5.09346e-06 5.06963e-06 5.04219e-06 5.01076e-06 4.97496e-06 4.93441e-06 4.88873e-06 4.83755e-06 4.78054e-06 4.71737e-06 4.64777e-06 4.57151e-06 4.48841e-06 4.39835e-06 4.3013e-06 4.19729e-06 4.08643e-06 3.96893e-06 3.84508e-06 3.71526e-06 3.57992e-06 3.43962e-06 3.29498e-06 3.14668e-06 2.99548e-06 2.84217e-06 2.68758e-06 2.53256e-06 2.37797e-06 2.22466e-06 2.07346e-06 1.92517e-06 1.78052e-06 1.64022e-06 1.50489e-06 1.37506e-06 1.25121e-06 1.13371e-06 1.02286e-06 9.18847e-07 8.21797e-07 7.31742e-07 6.4864e-07 5.72377e-07 5.02778e-07 4.39611e-07 3.82597e-07 3.31422e-07 2.8574e-07 2.45188e-07 2.09388e-07 1.77958e-07 1.50515e-07 1.26687e-07 1.06112e-07 8.8443e-08 7.33534e-08 6.05379e-08 4.97135e-08 4.06213e-08 3.30262e-08 2.67166e-08 2.15037e-08 1.72207e-08 1.37209e-08 1.0877e-08 8.57871e-09 6.73155e-09 5.25514e-09 4.08154e-09 3.15377e-09 2.42437e-09 1.85406e-09 1.4106e-09 1.06766e-09 8.03914e-10 6.02178e-10 4.48716e-10 3.32612e-10 2.45246e-10 1.79854e-10 1.31161e-10 9.50773e-11 6.84487e-11 4.88535e-11 3.44371e-11 2.3779e-11 1.57851e-11 9.59954e-12 4.53274e-12 0 
0 6.56556e-12 1.39041e-11 2.2862e-11 3.44371e-11 4.98676e-11 7.07367e-11 9.90992e-11 1.37638e-10 1.89854e-10 2.6031e-10 3.54918e-10 4.81305e-10 6.49248e-10 8.71208e-10 1.16296e-09 1.54437e-09 2.04024e-09 2.6814e-09 3.50588e-09 4.56028e-09 5.90132e-09 7.59756e-09 9.7313e-09 1.24006e-08 1.57217e-08 1.98308e-08 2.48871e-08 3.10748e-08 3.86052e-08 4.77193e-08 5.86897e-08 7.18215e-08 8.74542e-08 1.05962e-07 1.27752e-07 1.53265e-07 1.82974e-07 2.17377e-07 2.56997e-07 3.02373e-07 3.54054e-07 4.12593e-07 4.78534e-07 5.52403e-07 6.34695e-07 7.25867e-07 8.26319e-07 9.36384e-07 1.05632e-06 1.18628e-06 1.32633e-06 1.47643e-06 1.6364e-06 1.80596e-06 1.98467e-06 2.17201e-06 2.36729e-06 2.56973e-06 2.77844e-06 2.99242e-06 3.21058e-06 3.43179e-06 3.65485e-06 3.87853e-06 4.10158e-06 4.32279e-06 4.54096e-06 4.75494e-06 4.96365e-06 5.16609e-06 5.36137e-06 5.54871e-06 5.72742e-06 5.89698e-06 6.05695e-06 6.20704e-06 6.3471e-06 6.47706e-06 6.597e-06 6.70706e-06 6.80751e-06 6.89868e-06 6.98098e-06 7.05484e-06 7.12079e-06 7.17932e-06 7.23101e-06 7.27638e-06 7.316e-06 7.35041e-06 7.38011e-06 7.40563e-06 7.42742e-06 7.44593e-06 7.46156e-06 7.47469e-06 7.48566e-06 7.49477e-06 7.50231e-06 7.50849e-06 7.51355e-06 7.51766e-06 7.52098e-06 7.52365e-06 7.52578e-06 7.52748e-06 7.52882e-06 7.52987e-06 7.5307e-06 7.53134e-06 7.53184e-06 7.53222e-06 7.53251e-06 7.53273e-06 7.5329e-06 7.53302e-06 7.53312e-06 7.53319e-06 7.53324e-06 7.53328e-06 7.53331e-06 7.53333e-06 7.53334e-06 7.53335e-06 7.53336e-06 7.53336e-06 7.53336e-06 7.53336e-06 7.53336e-06 7.53336e-06 7.53335e-06 7.53334e-06 7.53333e-06 7.53331e-06 7.53328e-06 7.53324e-06 7.53319e-06 7.53312e-06 7.53302e-06 7.5329e-06 7.53273e-06 7.53251e-06 7.53222e-06 7.53184e-06 7.53134e-06 7.5307e-06 7.52987e-06 7.52882e-06 7.52748e-06 7.52578e-06 7.52365e-06 7.52098e-06 7.51766e-06 7.51355e-06 7.50849e-06 7.50231e-06 7.49477e-06 7.48566e-06 7.47469e-06 7.46156e-06 7.44593e-06 7.42742e-06 7.40563e-06 7.38011e-06 7.35041e-06 7.316e-06 7.27638e-06 7.23101e-06 7.17932e-06 7.12079e-06 7.05484e-06 6.98098e-06 6.89868e-06 6.80751e-06 6.70706e-06 6.597e-06 6.47706e-06 6.3471e-06 6.20704e-06 6.05695e-06 5.89698e-06 5.72742e-06 5.54871e-06 5.36137e-06 5.16609e-06 4.96365e-06 4.75494e-06 4.54096e-06 4.32279e-06 4.10158e-06 3.87853e-06 3.65485e-06 3.43179e-06 3.21058e-06 2.99242e-06 2.77844e-06 2.56973e-06 2.36729e-06 2.17201e-06 1.98467e-06 1.80596e-06 1.6364e-06 1.47643e-06 1.32633e-06 1.18628e-06 1.05632e-06 9.36384e-07 8.26319e-07 7.25867e-07 6.34695e-07 5.52403e-07 4.78534e-07 4.12593e-07 3.54054e-07 3.02373e-07 2.56997e-07 2.17377e-07 1.82974e-07 1.53265e-07 1.27752e-07 1.05962e-07 8.74542e-08 7.18215e-08 5.86897e-08 4.77193e-08 3.86052e-08 3.10748e-08 2.48871e-08 1.98308e-08 1.57217e-08 1.24006e-08 9.7313e-09 7.59756e-09 5.90132e-09 4.56028e-09 3.50588e-09 2.6814e-09 2.04024e-09 1.54437e-09 1.16296e-09 8.71208e-10 6.49248e-10 4.81305e-10 3.54918e-10 2.6031e-10 1.89854e-10 1.37638e-10 9.90992e-11 7.07367e-11 4.98676e-11 3.44371e-11 2.2862e-11 1.39041e-11 6.56556e-12 0 
0 9.31592e-12 1.97278e-11 3.24355e-11 4.88535e-11 7.07367e-11 1.00329e-10 1.40541e-10 1.95173e-10 2.69187e-10 3.69043e-10 5.03115e-10 6.82201e-10 9.20145e-10 1.23459e-09 1.64786e-09 2.18807e-09 2.89034e-09 3.79829e-09 4.96573e-09 6.45859e-09 8.3571e-09 1.07583e-08 1.37785e-08 1.75565e-08 2.22565e-08 2.80714e-08 3.52261e-08 4.39809e-08 5.46349e-08 6.75286e-08 8.30471e-08 1.01622e-07 1.23733e-07 1.49908e-07 1.80724e-07 2.16804e-07 2.58814e-07 3.07459e-07 3.63478e-07 4.27632e-07 5.00698e-07 5.83455e-07 6.76671e-07 7.8109e-07 8.97412e-07 1.02628e-06 1.16826e-06 1.32382e-06 1.49333e-06 1.677e-06 1.87493e-06 2.08705e-06 2.31312e-06 2.55272e-06 2.80527e-06 3.06998e-06 3.34593e-06 3.63199e-06 3.9269e-06 4.22926e-06 4.53753e-06 4.8501e-06 5.16528e-06 5.48133e-06 5.79651e-06 6.10908e-06 6.41735e-06 6.7197e-06 7.01461e-06 7.30067e-06 7.57662e-06 7.84134e-06 8.09388e-06 8.33349e-06 8.55955e-06 8.77167e-06 8.9696e-06 9.15328e-06 9.32278e-06 9.47834e-06 9.62032e-06 9.74919e-06 9.86551e-06 9.96993e-06 1.00631e-05 1.01459e-05 1.0219e-05 1.02831e-05 1.03391e-05 1.03878e-05 1.04298e-05 1.04659e-05 1.04967e-05 1.05229e-05 1.0545e-05 1.05636e-05 1.05791e-05 1.0592e-05 1.06026e-05 1.06114e-05 1.06185e-05 1.06243e-05 1.0629e-05 1.06328e-05 1.06358e-05 1.06382e-05 1.06401e-05 1.06416e-05 1.06428e-05 1.06437e-05 1.06444e-05 1.0645e-05 1.06454e-05 1.06457e-05 1.06459e-05 1.06461e-05 1.06462e-05 1.06463e-05 1.06464e-05 1.06465e-05 1.06465e-05 1.06465e-05 1.06466e-05 1.06466e-05 1.06466e-05 1.06466e-05 1.06466e-05 1.06466e-05 1.06466e-05 1.06466e-05 1.06466e-05 1.06466e-05 1.06465e-05 1.06465e-05 1.06465e-05 1.06464e-05 1.06463e-05 1.06462e-05 1.06461e-05 1.06459e-05 1.06457e-05 1.06454e-05 1.0645e-05 1.06444e-05 1.06437e-05 1.06428e-05 1.06416e-05 1.06401e-05 1.06382e-05 1.06358e-05 1.06328e-05 1.0629e-05 1.06243e-05 1.06185e-05 1.06114e-05 1.06026e-05 1.0592e-05 1.05791e-05 1.05636e-05 1.0545e-05 1.05229e-05 1.04967e-05 1.04659e-05 1.04298e-05 1.03878e-05 1.03391e-05 1.02831e-05 1.0219e-05 1.01459e-05 1.00631e-05 9.96993e-06 9.86551e-06 9.74919e-06 9.62032e-06 9.47834e-06 9.32278e-06 9.15328e-06 8.9696e-06 8.77167e-06 8.55955e-06 8.33349e-06 8.09388e-06 7.84134e-06 7.57662e-06 7.30067e-06 7.01461e-06 6.7197e-06 6.41735e-06 6.10908e-06 5.79651e-06 5.48133e-06 5.16528e-06 4.8501e-06 4.53753e-06 4.22926e-06 3.9269e-06 3.63199e-06 3.34593e-06 3.06998e-06 2.80527e-06 2.55272e-06 2.31312e-06 2.08705e-06 1.87493e-06 1.677e-06 1.49333e-06 1.32382e-06 1.16826e-06 1.02628e-06 8.97412e-07 7.8109e-07 6.76671e-07 5.83455e-07 5.00698e-07 4.27632e-07 3.63478e-07 3.07459e-07 2.58814e-07 2.16804e-07 1.80724e-07 1.49908e-07 1.23733e-07 1.01622e-07 8.30471e-08 6.75286e-08 5.46349e-08 4.39809e-08 3.52261e-08 2.80714e-08 2.22565e-08 1.75565e-08 1.37785e-08 1.07583e-08 8.3571e-09 6.45859e-09 4.96573e-09 3.79829e-09 2.89034e-09 2.18807e-09 1.64786e-09 1.23459e-09 9.20145e-10 6.82201e-10 5.03115e-10 3.69043e-10 2.69187e-10 1.95173e-10 1.40541e-10 1.00329e-10 7.07367e-11 4.88535e-11 3.24355e-11 1.97278e-11 9.31592e-12 0 
0 1.30552e-11 2.76451e-11 4.54495e-11 6.84487e-11 9.90992e-11 1.40541e-10 1.96848e-10 2.73336e-10 3.76948e-10 5.16717e-10 7.04358e-10 9.54969e-10 1.28791e-09 1.72784e-09 2.30598e-09 3.06162e-09 4.04384e-09 5.31361e-09 6.94612e-09 9.03347e-09 1.16878e-08 1.50445e-08 1.92663e-08 2.45469e-08 3.11157e-08 3.92419e-08 4.92397e-08 6.14725e-08 7.63577e-08 9.43708e-08 1.16049e-07 1.41996e-07 1.72879e-07 2.09437e-07 2.52474e-07 3.02859e-07 3.61522e-07 4.29447e-07 5.07663e-07 5.97234e-07 6.99241e-07 8.14773e-07 9.449e-07 1.09066e-06 1.25303e-06 1.4329e-06 1.63107e-06 1.84819e-06 2.08475e-06 2.34109e-06 2.61732e-06 2.91333e-06 3.22881e-06 3.56316e-06 3.91557e-06 4.28496e-06 4.67002e-06 5.06918e-06 5.48068e-06 5.90256e-06 6.3327e-06 6.76883e-06 7.2086e-06 7.64959e-06 8.08936e-06 8.52549e-06 8.95563e-06 9.37752e-06 9.78902e-06 1.01882e-05 1.05732e-05 1.09426e-05 1.1295e-05 1.16294e-05 1.19449e-05 1.22409e-05 1.25171e-05 1.27734e-05 1.301e-05 1.32271e-05 1.34253e-05 1.36052e-05 1.37675e-05 1.39133e-05 1.40434e-05 1.4159e-05 1.4261e-05 1.43505e-05 1.44287e-05 1.44967e-05 1.45553e-05 1.46057e-05 1.46488e-05 1.46853e-05 1.47162e-05 1.47421e-05 1.47638e-05 1.47818e-05 1.47967e-05 1.4809e-05 1.4819e-05 1.48271e-05 1.48336e-05 1.48389e-05 1.48431e-05 1.48465e-05 1.48492e-05 1.48512e-05 1.48529e-05 1.48542e-05 1.48551e-05 1.48559e-05 1.48565e-05 1.48569e-05 1.48572e-05 1.48575e-05 1.48577e-05 1.48578e-05 1.48579e-05 1.4858e-05 1.48581e-05 1.48581e-05 1.48581e-05 1.48581e-05 1.48582e-05 1.48582e-05 1.48582e-05 1.48582e-05 1.48582e-05 1.48582e-05 1.48581e-05 1.48581e-05 1.48581e-05 1.48581e-05 1.4858e-05 1.48579e-05 1.48578e-05 1.48577e-05 1.48575e-05 1.48572e-05 1.48569e-05 1.48565e-05 1.48559e-05 1.48551e-05 1.48542e-05 1.48529e-05 1.48512e-05 1.48492e-05 1.48465e-05 1.48431e-05 1.48389e-05 1.48336e-05 1.48271e-05 1.4819e-05 1.4809e-05 1.47967e-05 1.47818e-05 1.47638e-05 1.47421e-05 1.47162e-05 1.46853e-05 1.46488e-05 1.46057e-05 1.45553e-05 1.44967e-05 1.44287e-05 1.43505e-05 1.4261e-05 1.4159e-05 1.40434e-05 1.39133e-05 1.37675e-05 1.36052e-05 1.34253e-05 1.32271e-05 1.301e-05 1.27734e-05 1.25171e-05 1.22409e-05 1.19449e-05 1.16294e-05 1.1295e-05 1.09426e-05 1.05732e-05 1.01882e-05 9.78902e-06 9.37752e-06 8.95563e-06 8.52549e-06 8.08936e-06 7.64959e-06 7.2086e-06 6.76883e-06 6.3327e-06 5.90256e-06 5.48068e-06 5.06918e-06 4.67002e-06 4.28496e-06 3.91557e-06 3.56316e-06 3.22881e-06 2.91333e-06 2.61732e-06 2.34109e-06 2.08475e-06 1.84819e-06 1.63107e-06 1.4329e-06 1.25303e-06 1.09066e-06 9.449e-07 8.14773e-07 6.99241e-07 5.97234e-07 5.07663e-07 4.29447e-07 3.61522e-07 3.02859e-07 2.52474e-07 2.09437e-07 1.72879e-07 1.41996e-07 1.16049e-07 9.43708e-08 7.63577e-08 6.14725e-08 4.92397e-08 3.92419e-08 3.11157e-08 2.45469e-08 1.92663e-08 1.50445e-08 1.16878e-08 9.03347e-09 6.94612e-09 5.31361e-09 4.04384e-09 3.06162e-09 2.30598e-09 1.72784e-09 1.28791e-09 9.54969e-10 7.04358e-10 5.16717e-10 3.76948e-10 2.73336e-10 1.96848e-10 1.40541e-10 9.90992e-11 6.84487e-11 4.54495e-11 2.76451e-11 1.30552e-11 0 
0 1.81379e-11 3.84061e-11 6.31364e-11 9.50773e-11 1.37638e-10 1.95173e-10 2.73336e-10 3.79501e-10 5.23293e-10 7.17242e-10 9.77587e-10 1.32526e-09 1.7871e-09 2.39728e-09 3.19908e-09 4.24691e-09 5.60882e-09 7.36924e-09 9.63233e-09 1.25257e-08 1.62046e-08 2.08566e-08 2.67069e-08 3.40239e-08 4.31249e-08 5.43828e-08 6.82325e-08 8.51768e-08 1.05794e-07 1.30741e-07 1.60762e-07 1.96692e-07 2.39455e-07 2.90071e-07 3.49654e-07 4.19406e-07 5.00613e-07 5.94636e-07 7.02898e-07 8.26869e-07 9.68047e-07 1.12793e-06 1.30801e-06 1.50971e-06 1.73439e-06 1.98328e-06 2.25747e-06 2.55787e-06 2.88517e-06 3.2398e-06 3.62195e-06 4.03146e-06 4.46788e-06 4.93041e-06 5.4179e-06 5.92887e-06 6.4615e-06 7.01364e-06 7.58284e-06 8.16639e-06 8.76136e-06 9.36462e-06 9.97291e-06 1.05829e-05 1.11912e-05 1.17944e-05 1.23894e-05 1.29729e-05 1.35422e-05 1.40943e-05 1.46269e-05 1.51379e-05 1.56254e-05 1.60879e-05 1.65243e-05 1.69338e-05 1.7316e-05 1.76706e-05 1.79979e-05 1.82983e-05 1.85725e-05 1.88214e-05 1.90461e-05 1.92478e-05 1.94279e-05 1.95877e-05 1.97289e-05 1.98529e-05 1.99612e-05 2.00552e-05 2.01364e-05 2.02061e-05 2.02657e-05 2.03163e-05 2.03591e-05 2.0395e-05 2.04251e-05 2.045e-05 2.04706e-05 2.04876e-05 2.05014e-05 2.05127e-05 2.05218e-05 2.05291e-05 2.05349e-05 2.05396e-05 2.05433e-05 2.05462e-05 2.05484e-05 2.05502e-05 2.05515e-05 2.05526e-05 2.05534e-05 2.0554e-05 2.05545e-05 2.05548e-05 2.05551e-05 2.05553e-05 2.05554e-05 2.05555e-05 2.05556e-05 2.05556e-05 2.05557e-05 2.05557e-05 2.05557e-05 2.05557e-05 2.05557e-05 2.05557e-05 2.05557e-05 2.05557e-05 2.05557e-05 2.05557e-05 2.05556e-05 2.05556e-05 2.05555e-05 2.05554e-05 2.05553e-05 2.05551e-05 2.05548e-05 2.05545e-05 2.0554e-05 2.05534e-05 2.05526e-05 2.05515e-05 2.05502e-05 2.05484e-05 2.05462e-05 2.05433e-05 2.05396e-05 2.05349e-05 2.05291e-05 2.05218e-05 2.05127e-05 2.05014e-05 2.04876e-05 2.04706e-05 2.045e-05 2.04251e-05 2.0395e-05 2.03591e-05 2.03163e-05 2.02657e-05 2.02061e-05 2.01364e-05 2.00552e-05 1.99612e-05 1.98529e-05 1.97289e-05 1.95877e-05 1.94279e-05 1.92478e-05 1.90461e-05 1.88214e-05 1.85725e-05 1.82983e-05 1.79979e-05 1.76706e-05 1.7316e-05 1.69338e-05 1.65243e-05 1.60879e-05 1.56254e-05 1.51379e-05 1.46269e-05 1.40943e-05 1.35422e-05 1.29729e-05 1.23894e-05 1.17944e-05 1.11912e-05 1.05829e-05 9.97291e-06 9.36462e-06 8.76136e-06 8.16639e-06 7.58284e-06 7.01364e-06 6.4615e-06 5.92887e-06 5.4179e-06 4.93041e-06 4.46788e-06 4.03146e-06 3.62195e-06 3.2398e-06 2.88517e-06 2.55787e-06 2.25747e-06 1.98328e-06 1.73439e-06 1.50971e-06 1.30801e-06 1.12793e-06 9.68047e-07 8.26869e-07 7.02898e-07 5.94636e-07 5.00613e-07 4.19406e-07 3.49654e-07 2.90071e-07 2.39455e-07 1.96692e-07 1.60762e-07 1.30741e-07 1.05794e-07 8.51768e-08 6.82325e-08 5.43828e-08 4.31249e-08 3.40239e-08 2.67069e-08 2.08566e-08 1.62046e-08 1.25257e-08 9.63233e-09 7.36924e-09 5.60882e-09 4.24691e-09 3.19908e-09 2.39728e-09 1.7871e-09 1.32526e-09 9.77587e-10 7.17242e-10 5.23293e-10 3.79501e-10 2.73336e-10 1.95173e-10 1.37638e-10 9.50773e-11 6.31364e-11 3.84061e-11 1.81379e-11 0 
0 2.50268e-11 5.29905e-11 8.71059e-11 1.31161e-10 1.89854e-10 2.69187e-10 3.76948e-10 5.23293e-10 7.21482e-10 9.8877e-10 1.34752e-09 1.82655e-09 2.46279e-09 3.30332e-09 4.40766e-09 5.85075e-09 7.72616e-09 1.01501e-08 1.32659e-08 1.7249e-08 2.2313e-08 2.87159e-08 3.67675e-08 4.68365e-08 5.93596e-08 7.48494e-08 9.39034e-08 1.17213e-07 1.45573e-07 1.79887e-07 2.21177e-07 2.70589e-07 3.29395e-07 3.98996e-07 4.80922e-07 5.76824e-07 6.88468e-07 8.17725e-07 9.66547e-07 1.13696e-06 1.33101e-06 1.55076e-06 1.79826e-06 2.07546e-06 2.38422e-06 2.72624e-06 3.10302e-06 3.5158e-06 3.96552e-06 4.4528e-06 4.97785e-06 5.54049e-06 6.14008e-06 6.77553e-06 7.44526e-06 8.14724e-06 8.87895e-06 9.63746e-06 1.04194e-05 1.1221e-05 1.20384e-05 1.28671e-05 1.37027e-05 1.45406e-05 1.53762e-05 1.62049e-05 1.70222e-05 1.78239e-05 1.86058e-05 1.93643e-05 2.00961e-05 2.0798e-05 2.14678e-05 2.21032e-05 2.27028e-05 2.32654e-05 2.37905e-05 2.42778e-05 2.47275e-05 2.51403e-05 2.5517e-05 2.58591e-05 2.61678e-05 2.6445e-05 2.66925e-05 2.69123e-05 2.71063e-05 2.72767e-05 2.74256e-05 2.75548e-05 2.76665e-05 2.77624e-05 2.78443e-05 2.79139e-05 2.79727e-05 2.80221e-05 2.80634e-05 2.80977e-05 2.81261e-05 2.81494e-05 2.81684e-05 2.81839e-05 2.81965e-05 2.82065e-05 2.82146e-05 2.8221e-05 2.8226e-05 2.823e-05 2.82331e-05 2.82356e-05 2.82374e-05 2.82389e-05 2.824e-05 2.82408e-05 2.82415e-05 2.82419e-05 2.82423e-05 2.82426e-05 2.82428e-05 2.82429e-05 2.8243e-05 2.82431e-05 2.82432e-05 2.82432e-05 2.82432e-05 2.82432e-05 2.82432e-05 2.82432e-05 2.82432e-05 2.82432e-05 2.82432e-05 2.82432e-05 2.82431e-05 2.8243e-05 2.82429e-05 2.82428e-05 2.82426e-05 2.82423e-05 2.82419e-05 2.82415e-05 2.82408e-05 2.824e-05 2.82389e-05 2.82374e-05 2.82356e-05 2.82331e-05 2.823e-05 2.8226e-05 2.8221e-05 2.82146e-05 2.82065e-05 2.81965e-05 2.81839e-05 2.81684e-05 2.81494e-05 2.81261e-05 2.80977e-05 2.80634e-05 2.80221e-05 2.79727e-05 2.79139e-05 2.78443e-05 2.77624e-05 2.76665e-05 2.75548e-05 2.74256e-05 2.72767e-05 2.71063e-05 2.69123e-05 2.66925e-05 2.6445e-05 2.61678e-05 2.58591e-05 2.5517e-05 2.51403e-05 2.47275e-05 2.42778e-05 2.37905e-05 2.32654e-05 2.27028e-05 2.21032e-05 2.14678e-05 2.0798e-05 2.00961e-05 1.93643e-05 1.86058e-05 1.78239e-05 1.70222e-05 1.62049e-05 1.53762e-05 1.45406e-05 1.37027e-05 1.28671e-05 1.20384e-05 1.1221e-05 1.04194e-05 9.63746e-06 8.87895e-06 8.14724e-06 7.44526e-06 6.77553e-06 6.14008e-06 5.54049e-06 4.97785e-06 4.4528e-06 3.96552e-06 3.5158e-06 3.10302e-06 2.72624e-06 2.38422e-06 2.07546e-06 1.79826e-06 1.55076e-06 1.33101e-06 1.13696e-06 9.66547e-07 8.17725e-07 6.88468e-07 5.76824e-07 4.80922e-07 3.98996e-07 3.29395e-07 2.70589e-07 2.21177e-07 1.79887e-07 1.45573e-07 1.17213e-07 9.39034e-08 7.48494e-08 5.93596e-08 4.68365e-08 3.67675e-08 2.87159e-08 2.2313e-08 1.7249e-08 1.32659e-08 1.01501e-08 7.72616e-09 5.85075e-09 4.40766e-09 3.30332e-09 2.46279e-09 1.82655e-09 1.34752e-09 9.8877e-10 7.21482e-10 5.23293e-10 3.76948e-10 2.69187e-10 1.89854e-10 1.31161e-10 8.71059e-11 5.29905e-11 2.50268e-11 0 