<?xml version="1.0"?>
<VTKFile type="ImageData" version="0.1" byte_order="LittleEndian">
  <ImageData WholeExtent="0 255 0 255 0 0" Origin="0 0 0" Spacing="1 1 1">
  <Piece Extent="0 255 0 255 0 0">
    <PointData>
      <DataArray type="Float32" Name="scalar_data" format="ascii" >0 0 0 0 0 0 0 0 0 0 0 0 0 0 0 0 0 0 0 0 0 0 0 0 0 0 0 0 0 0 0 0 0 0 0 0 0 0 0 0 0 0 0 0 0 0 0 0 0 0 0 0 0 0 0 0 0 0 0 0 0 0 0 0 0 0 0 0 0 0 0 0 0 0 0 0 0 0 0 0 0 0 0 0 0 0 0 0 0 0 0 0 0 0 0 0 0 0 0 0 0 0 0 0 0 0 0 0 0 0 0 0 0 0 0 0 0 0 0 0 0 0 0 0 0 0 0 0 0 0 0 0 0 0 0 0 0 0 0 0 0 0 0 0 0 0 0 0 0 0 0 0 0 0 0 0 0 0 0 0 0 0 0 0 0 0 0 0 0 0 0 0 0 0 0 0 0 0 0 0 0 0 0 0 0 0 0 0 0 0 0 0 0 0 0 0 0 0 0 0 0 0 0 0 0 0 0 0 0 0 0 0 0 0 0 0 0 0 0 0 0 0 0 0 0 0 0 0 0 0 0 0 0 0 0 0 0 0 0 0 0 0 0 0 0 0 0 0 0 0 0 0 0 0 0 0 
0 0 0 0 0 0 0 0 0 0 0 0 0 0 0 0 0 0 0 0 0 0 1.4013e-45 1.54143e-44 1.079e-43 6.75426e-43 4.01192e-42 2.26632e-41 1.21949e-40 6.25357e-40 3.05806e-39 1.42678e-38 6.35429e-38 2.70244e-37 1.09797e-36 4.26305e-36 1.58228e-35 5.61562e-35 1.90624e-34 6.19048e-34 1.92367e-33 5.72109e-33 1.62873e-32 4.43932e-32 1.15865e-31 2.89617e-31 6.93435e-31 1.59063e-30 3.49615e-30 7.36473e-30 1.48718e-29 2.87949e-29 5.34736e-29 9.52752e-29 1.62932e-28 2.67561e-28 4.22145e-28 6.4033e-28 9.34502e-28 1.31335e-27 1.77935e-27 2.32681e-27 2.94105e-27 3.59922e-27 4.27272e-27 4.93089e-27 5.54513e-27 6.09259e-27 6.55859e-27 6.93744e-27 7.23161e-27 7.44979e-27 7.60438e-27 7.70901e-27 7.77666e-27 7.81846e-27 7.84314e-27 7.85707e-27 7.86457e-27 7.86844e-27 7.87035e-27 7.87124e-27 7.87165e-27 7.87182e-27 7.87189e-27 7.87192e-27 7.87193e-27 7.87194e-27 7.87194e-27 7.87194e-27 7.87194e-27 7.87194e-27 7.87194e-27 7.87194e-27 7.87194e-27 7.87194e-27 7.87194e-27 7.87194e-27 7.87194e-27 7.87194e-27 7.87194e-27 7.87194e-27 7.87194e-27 7.87194e-27 7.87194e-27 7.87194e-27 7.87194e-27 7.87194e-27 7.87194e-27 7.87194e-27 7.87194e-27 7.87194e-27 7.87194e-27 7.87194e-27 7.87194e-27 7.87194e-27 7.87194e-27 7.87194e-27 7.87194e-27 7.87194e-27 7.87194e-27 7.87194e-27 7.87194e-27 7.87194e-27 7.87194e-27 7.87194e-27 7.87194e-27 7.87194e-27 7.87194e-27 7.87194e-27 7.87194e-27 7.87194e-27 7.87194e-27 7.87194e-27 7.87194e-27 7.87194e-27 7.87194e-27 7.87194e-27 7.87194e-27 7.87194e-27 7.87194e-27 7.87194e-27 7.87194e-27 7.87194e-27 7.87194e-27 7.87194e-27 7.87194e-27 7.87194e-27 7.87194e-27 7.87194e-27 7.87194e-27 7.87194e-27 7.87194e-27 7.87194e-27 7.87194e-27 7.87194e-27 7.87194e-27 7.87194e-27 7.87194e-27 7.87194e-27 7.87194e-27 7.87194e-27 7.87194e-27 7.87194e-27 7.87194e-27 7.87194e-27 7.87194e-27 7.87194e-27 7.87194e-27 7.87193e-27 7.87192e-27 7.87189e-27 7.87182e-27 7.87165e-27 7.87124e-27 7.87035e-27 7.86844e-27 7.86457e-27 7.85707e-27 7.84314e-27 7.81846e-27 7.77666e-27 7.70901e-27 7.60438e-27 7.44979e-27 7.23161e-27 6.93744e-27 6.55859e-27 6.09259e-27 5.54513e-27 4.93089e-27 4.27272e-27 3.59922e-27 2.94105e-27 2.32681e-27 1.77935e-27 1.31335e-27 9.34502e-28 6.4033e-28 4.22145e-28 2.67561e-28 1.62932e-28 9.52752e-29 5.34736e-29 2.87949e-29 1.48718e-29 7.36473e-30 3.49615e-30 1.59063e-30 6.93435e-31 2.89617e-31 1.15865e-31 4.43932e-32 1.62873e-32 5.72109e-33 1.92367e-33 6.19048e-34 1.90624e-34 5.61562e-35 1.58228e-35 4.26305e-36 1.09797e-36 2.70244e-37 6.35429e-38 1.42678e-38 3.05806e-39 6.25357e-40 1.21949e-40 2.26632e-41 4.01192e-42 6.75426e-43 1.079e-43 1.54143e-44 1.4013e-45 0 0 0 0 0 0 0 0 0 0 0 0 0 0 0 0 0 0 0 0 0 0 
0 0 0 0 0 0 0 0 0 0 0 0 0 0 0 0 0 0 0 0 0 2.8026e-45 2.38221e-44 1.63952e-43 1.05518e-42 6.42215e-42 3.7154e-41 2.04817e-40 1.07651e-39 5.39787e-39 2.58347e-38 1.18077e-37 5.15576e-37 2.15158e-36 8.58438e-36 3.27557e-35 1.19568e-34 4.17644e-34 1.39625e-33 4.46866e-33 1.36942e-32 4.01899e-32 1.12978e-31 3.0425e-31 7.85055e-31 1.94118e-30 4.60038e-30 1.04509e-29 2.27627e-29 4.75425e-29 9.52406e-29 1.83042e-28 3.3759e-28 5.97697e-28 1.01623e-27 1.66006e-27 2.60679e-27 3.93747e-27 5.72509e-27 8.02022e-27 1.08363e-26 1.41381e-26 1.78376e-26 2.17983e-26 2.58501e-26 2.98108e-26 3.35103e-26 3.68121e-26 3.96282e-26 4.19233e-26 4.37109e-26 4.50416e-26 4.59883e-26 4.66321e-26 4.70507e-26 4.73108e-26 4.74653e-26 4.75531e-26 4.76008e-26 4.76256e-26 4.76379e-26 4.76438e-26 4.76464e-26 4.76476e-26 4.76481e-26 4.76483e-26 4.76483e-26 4.76484e-26 4.76484e-26 4.76484e-26 4.76484e-26 4.76484e-26 4.76484e-26 4.76484e-26 4.76484e-26 4.76484e-26 4.76484e-26 4.76484e-26 4.76484e-26 4.76484e-26 4.76484e-26 4.76484e-26 4.76484e-26 4.76484e-26 4.76484e-26 4.76484e-26 4.76484e-26 4.76484e-26 4.76484e-26 4.76484e-26 4.76484e-26 4.76484e-26 4.76484e-26 4.76484e-26 4.76484e-26 4.76484e-26 4.76484e-26 4.76484e-26 4.76484e-26 4.76484e-26 4.76484e-26 4.76484e-26 4.76484e-26 4.76484e-26 4.76484e-26 4.76484e-26 4.76484e-26 4.76484e-26 4.76484e-26 4.76484e-26 4.76484e-26 4.76484e-26 4.76484e-26 4.76484e-26 4.76484e-26 4.76484e-26 4.76484e-26 4.76484e-26 4.76484e-26 4.76484e-26 4.76484e-26 4.76484e-26 4.76484e-26 4.76484e-26 4.76484e-26 4.76484e-26 4.76484e-26 4.76484e-26 4.76484e-26 4.76484e-26 4.76484e-26 4.76484e-26 4.76484e-26 4.76484e-26 4.76484e-26 4.76484e-26 4.76484e-26 4.76484e-26 4.76484e-26 4.76484e-26 4.76484e-26 4.76484e-26 4.76484e-26 4.76484e-26 4.76484e-26 4.76484e-26 4.76484e-26 4.76484e-26 4.76484e-26 4.76483e-26 4.76483e-26 4.76481e-26 4.76476e-26 4.76464e-26 4.76438e-26 4.76379e-26 4.76256e-26 4.76008e-26 4.75531e-26 4.74653e-26 4.73108e-26 4.70507e-26 4.66321e-26 4.59883e-26 4.50416e-26 4.37109e-26 4.19233e-26 3.96282e-26 3.68121e-26 3.35103e-26 2.98108e-26 2.58501e-26 2.17983e-26 1.78376e-26 1.41381e-26 1.08363e-26 8.02022e-27 5.72509e-27 3.93747e-27 2.60679e-27 1.66006e-27 1.01623e-27 5.97697e-28 3.3759e-28 1.83042e-28 9.52406e-29 4.75425e-29 2.27627e-29 1.04509e-29 4.60038e-30 1.94118e-30 7.85055e-31 3.0425e-31 1.12978e-31 4.01899e-32 1.36942e-32 4.46866e-33 1.39625e-33 4.17644e-34 1.19568e-34 3.27557e-35 8.58438e-36 2.15158e-36 5.15576e-37 1.18077e-37 2.58347e-38 5.39787e-39 1.07651e-39 2.04817e-40 3.7154e-41 6.42215e-42 1.05518e-42 1.63952e-43 2.38221e-44 2.8026e-45 0 0 0 0 0 0 0 0 0 0 0 0 0 0 0 0 0 0 0 0 0 
0 0 0 0 0 0 0 0 0 0 0 0 0 0 0 0 0 0 0 0 2.8026e-45 3.36312e-44 2.39622e-43 1.57226e-42 9.78106e-42 5.78932e-41 3.26637e-40 1.75783e-39 9.02834e-39 4.42783e-38 2.0746e-37 9.29023e-37 3.97776e-36 1.62901e-35 6.38304e-35 2.39372e-34 8.59362e-34 2.95421e-33 9.72666e-33 3.06781e-32 9.27073e-32 2.68469e-31 7.45136e-31 1.98246e-30 5.05663e-30 1.23672e-29 2.90064e-29 6.52531e-29 1.4082e-28 2.91581e-28 5.79406e-28 1.10519e-27 2.02413e-27 3.56067e-27 6.01841e-27 9.77878e-27 1.52817e-26 2.29833e-26 3.32915e-26 4.64847e-26 6.26309e-26 8.15248e-26 1.02664e-25 1.25276e-25 1.48402e-25 1.71014e-25 1.92153e-25 2.11047e-25 2.27193e-25 2.40387e-25 2.50695e-25 2.58396e-25 2.63899e-25 2.6766e-25 2.70117e-25 2.71654e-25 2.72573e-25 2.73099e-25 2.73387e-25 2.73537e-25 2.73613e-25 2.73649e-25 2.73666e-25 2.73673e-25 2.73676e-25 2.73677e-25 2.73678e-25 2.73678e-25 2.73678e-25 2.73678e-25 2.73678e-25 2.73678e-25 2.73678e-25 2.73678e-25 2.73678e-25 2.73678e-25 2.73678e-25 2.73678e-25 2.73678e-25 2.73678e-25 2.73678e-25 2.73678e-25 2.73678e-25 2.73678e-25 2.73678e-25 2.73678e-25 2.73678e-25 2.73678e-25 2.73678e-25 2.73678e-25 2.73678e-25 2.73678e-25 2.73678e-25 2.73678e-25 2.73678e-25 2.73678e-25 2.73678e-25 2.73678e-25 2.73678e-25 2.73678e-25 2.73678e-25 2.73678e-25 2.73678e-25 2.73678e-25 2.73678e-25 2.73678e-25 2.73678e-25 2.73678e-25 2.73678e-25 2.73678e-25 2.73678e-25 2.73678e-25 2.73678e-25 2.73678e-25 2.73678e-25 2.73678e-25 2.73678e-25 2.73678e-25 2.73678e-25 2.73678e-25 2.73678e-25 2.73678e-25 2.73678e-25 2.73678e-25 2.73678e-25 2.73678e-25 2.73678e-25 2.73678e-25 2.73678e-25 2.73678e-25 2.73678e-25 2.73678e-25 2.73678e-25 2.73678e-25 2.73678e-25 2.73678e-25 2.73678e-25 2.73678e-25 2.73678e-25 2.73678e-25 2.73678e-25 2.73678e-25 2.73678e-25 2.73678e-25 2.73678e-25 2.73678e-25 2.73678e-25 2.73678e-25 2.73678e-25 2.73678e-25 2.73677e-25 2.73676e-25 2.73673e-25 2.73666e-25 2.73649e-25 2.73613e-25 2.73537e-25 2.73387e-25 2.73099e-25 2.72573e-25 2.71654e-25 2.70117e-25 2.6766e-25 2.63899e-25 2.58396e-25 2.50695e-25 2.40387e-25 2.27193e-25 2.11047e-25 1.92153e-25 1.71014e-25 1.48402e-25 1.25276e-25 1.02664e-25 8.15248e-26 6.26309e-26 4.64847e-26 3.32915e-26 2.29833e-26 1.52817e-26 9.77878e-27 6.01841e-27 3.56067e-27 2.02413e-27 1.10519e-27 5.79406e-28 2.91581e-28 1.4082e-28 6.52531e-29 2.90064e-29 1.23672e-29 5.05663e-30 1.98246e-30 7.45136e-31 2.68469e-31 9.27073e-32 3.06781e-32 9.72666e-33 2.95421e-33 8.59362e-34 2.39372e-34 6.38304e-35 1.62901e-35 3.97776e-36 9.29023e-37 2.0746e-37 4.42783e-38 9.02834e-39 1.75783e-39 3.26637e-40 5.78932e-41 9.78106e-42 1.57226e-42 2.39622e-43 3.36312e-44 2.8026e-45 0 0 0 0 0 0 0 0 0 0 0 0 0 0 0 0 0 0 0 0 
0 0 0 0 0 0 0 0 0 0 0 0 0 0 0 0 0 0 0 5.60519e-45 4.76441e-44 3.37713e-43 2.25469e-42 1.43227e-41 8.66997e-41 5.00435e-40 2.75619e-39 1.4493e-38 7.27998e-38 3.49489e-37 1.60421e-36 7.04345e-36 2.95914e-35 1.19e-34 4.58201e-34 1.68971e-33 5.96926e-33 2.02059e-32 6.55498e-32 2.03836e-31 6.07686e-31 1.73714e-30 4.7622e-30 1.25217e-29 3.15832e-29 7.64271e-29 1.7746e-28 3.95435e-28 8.45758e-28 1.73656e-27 3.42369e-27 6.48283e-27 1.17928e-26 2.06154e-26 3.46458e-26 5.60003e-26 8.71039e-26 1.30455e-25 1.8827e-25 2.62041e-25 3.521e-25 4.5728e-25 5.74795e-25 7.00396e-25 8.28815e-25 9.54416e-25 1.07193e-24 1.17711e-24 1.26717e-24 1.34094e-24 1.39876e-24 1.44211e-24 1.47321e-24 1.49456e-24 1.5086e-24 1.51742e-24 1.52273e-24 1.52579e-24 1.52747e-24 1.52836e-24 1.52882e-24 1.52903e-24 1.52913e-24 1.52918e-24 1.5292e-24 1.52921e-24 1.52921e-24 1.52921e-24 1.52921e-24 1.52921e-24 1.52921e-24 1.52921e-24 1.52921e-24 1.52921e-24 1.52921e-24 1.52921e-24 1.52921e-24 1.52921e-24 1.52921e-24 1.52921e-24 1.52921e-24 1.52921e-24 1.52921e-24 1.52921e-24 1.52921e-24 1.52921e-24 1.52921e-24 1.52921e-24 1.52921e-24 1.52921e-24 1.52921e-24 1.52921e-24 1.52921e-24 1.52921e-24 1.52921e-24 1.52921e-24 1.52921e-24 1.52921e-24 1.52921e-24 1.52921e-24 1.52921e-24 1.52921e-24 1.52921e-24 1.52921e-24 1.52921e-24 1.52921e-24 1.52921e-24 1.52921e-24 1.52921e-24 1.52921e-24 1.52921e-24 1.52921e-24 1.52921e-24 1.52921e-24 1.52921e-24 1.52921e-24 1.52921e-24 1.52921e-24 1.52921e-24 1.52921e-24 1.52921e-24 1.52921e-24 1.52921e-24 1.52921e-24 1.52921e-24 1.52921e-24 1.52921e-24 1.52921e-24 1.52921e-24 1.52921e-24 1.52921e-24 1.52921e-24 1.52921e-24 1.52921e-24 1.52921e-24 1.52921e-24 1.52921e-24 1.52921e-24 1.52921e-24 1.52921e-24 1.52921e-24 1.52921e-24 1.52921e-24 1.52921e-24 1.52921e-24 1.52921e-24 1.52921e-24 1.52921e-24 1.52921e-24 1.52921e-24 1.52921e-24 1.5292e-24 1.52918e-24 1.52913e-24 1.52903e-24 1.52882e-24 1.52836e-24 1.52747e-24 1.52579e-24 1.52273e-24 1.51742e-24 1.5086e-24 1.49456e-24 1.47321e-24 1.44211e-24 1.39876e-24 1.34094e-24 1.26717e-24 1.17711e-24 1.07193e-24 9.54416e-25 8.28815e-25 7.00396e-25 5.74795e-25 4.5728e-25 3.521e-25 2.62041e-25 1.8827e-25 1.30455e-25 8.71039e-26 5.60003e-26 3.46458e-26 2.06154e-26 1.17928e-26 6.48283e-27 3.42369e-27 1.73656e-27 8.45758e-28 3.95435e-28 1.7746e-28 7.64271e-29 3.15832e-29 1.25217e-29 4.7622e-30 1.73714e-30 6.07686e-31 2.03836e-31 6.55498e-32 2.02059e-32 5.96926e-33 1.68971e-33 4.58201e-34 1.19e-34 2.95914e-35 7.04345e-36 1.60421e-36 3.49489e-37 7.27998e-38 1.4493e-38 2.75619e-39 5.00435e-40 8.66997e-41 1.43227e-41 2.25469e-42 3.37713e-43 4.76441e-44 5.60519e-45 0 0 0 0 0 0 0 0 0 0 0 0 0 0 0 0 0 0 0 
0 0 0 0 0 0 0 0 0 0 0 0 0 0 0 0 0 0 8.40779e-45 6.30584e-44 4.55422e-43 3.10808e-42 2.01745e-41 1.24839e-40 7.36862e-40 4.15155e-39 2.23401e-38 1.1488e-37 5.64808e-37 2.65614e-36 1.19528e-35 5.149e-35 2.12398e-34 8.39246e-34 3.17729e-33 1.15282e-32 4.00962e-32 1.33712e-31 4.27602e-31 1.31156e-30 3.8591e-30 1.08941e-29 2.95097e-29 7.6712e-29 1.914e-28 4.58416e-28 1.05408e-27 2.32726e-27 4.93449e-27 1.00495e-26 1.96623e-26 3.69672e-26 6.68048e-26 1.16077e-25 1.93994e-25 3.11985e-25 4.83061e-25 7.20547e-25 1.03616e-24 1.4377e-24 1.9267e-24 2.49674e-24 3.13278e-24 3.81203e-24 4.50634e-24 5.18559e-24 5.82162e-24 6.39166e-24 6.88067e-24 7.2822e-24 7.59782e-24 7.83531e-24 8.00638e-24 8.12437e-24 8.20229e-24 8.25156e-24 8.2814e-24 8.2987e-24 8.30832e-24 8.31343e-24 8.31604e-24 8.31731e-24 8.31791e-24 8.31818e-24 8.31829e-24 8.31834e-24 8.31836e-24 8.31836e-24 8.31837e-24 8.31837e-24 8.31837e-24 8.31837e-24 8.31837e-24 8.31837e-24 8.31837e-24 8.31837e-24 8.31837e-24 8.31837e-24 8.31837e-24 8.31837e-24 8.31837e-24 8.31837e-24 8.31837e-24 8.31837e-24 8.31837e-24 8.31837e-24 8.31837e-24 8.31837e-24 8.31837e-24 8.31837e-24 8.31837e-24 8.31837e-24 8.31837e-24 8.31837e-24 8.31837e-24 8.31837e-24 8.31837e-24 8.31837e-24 8.31837e-24 8.31837e-24 8.31837e-24 8.31837e-24 8.31837e-24 8.31837e-24 8.31837e-24 8.31837e-24 8.31837e-24 8.31837e-24 8.31837e-24 8.31837e-24 8.31837e-24 8.31837e-24 8.31837e-24 8.31837e-24 8.31837e-24 8.31837e-24 8.31837e-24 8.31837e-24 8.31837e-24 8.31837e-24 8.31837e-24 8.31837e-24 8.31837e-24 8.31837e-24 8.31837e-24 8.31837e-24 8.31837e-24 8.31837e-24 8.31837e-24 8.31837e-24 8.31837e-24 8.31837e-24 8.31837e-24 8.31837e-24 8.31837e-24 8.31837e-24 8.31837e-24 8.31837e-24 8.31837e-24 8.31837e-24 8.31837e-24 8.31837e-24 8.31837e-24 8.31837e-24 8.31837e-24 8.31837e-24 8.31837e-24 8.31837e-24 8.31836e-24 8.31836e-24 8.31834e-24 8.31829e-24 8.31818e-24 8.31791e-24 8.31731e-24 8.31604e-24 8.31343e-24 8.30832e-24 8.2987e-24 8.2814e-24 8.25156e-24 8.20229e-24 8.12437e-24 8.00638e-24 7.83531e-24 7.59782e-24 7.2822e-24 6.88067e-24 6.39166e-24 5.82162e-24 5.18559e-24 4.50634e-24 3.81203e-24 3.13278e-24 2.49674e-24 1.9267e-24 1.4377e-24 1.03616e-24 7.20547e-25 4.83061e-25 3.11985e-25 1.93994e-25 1.16077e-25 6.68048e-26 3.69672e-26 1.96623e-26 1.00495e-26 4.93449e-27 2.32726e-27 1.05408e-27 4.58416e-28 1.914e-28 7.6712e-29 2.95097e-29 1.08941e-29 3.8591e-30 1.31156e-30 4.27602e-31 1.33712e-31 4.00962e-32 1.15282e-32 3.17729e-33 8.39246e-34 2.12398e-34 5.149e-35 1.19528e-35 2.65614e-36 5.64808e-37 1.1488e-37 2.23401e-38 4.15155e-39 7.36862e-40 1.24839e-40 2.01745e-41 3.10808e-42 4.55422e-43 6.30584e-44 8.40779e-45 0 0 0 0 0 0 0 0 0 0 0 0 0 0 0 0 0 0 
0 0 0 0 0 0 0 0 0 0 0 0 0 0 0 0 1.4013e-45 9.80909e-45 8.12753e-44 5.91348e-43 4.12262e-42 2.73407e-41 1.72875e-40 1.04303e-39 6.00906e-39 3.30764e-38 1.7405e-37 8.75966e-37 4.2185e-36 1.94476e-35 8.58567e-35 3.63105e-34 1.47155e-33 5.71641e-33 2.12907e-32 7.60454e-32 2.60534e-31 8.56337e-31 2.70078e-30 8.1746e-30 2.37486e-29 6.62314e-29 1.77336e-28 4.55925e-28 1.12565e-27 2.66921e-27 6.07975e-27 1.33037e-26 2.79713e-26 5.6517e-26 1.09763e-25 2.04949e-25 3.6801e-25 6.3568e-25 1.05667e-24 1.69104e-24 2.60677e-24 3.87302e-24 5.55018e-24 7.67782e-24 1.02629e-23 1.32708e-23 1.66226e-23 2.01994e-23 2.38544e-23 2.74312e-23 3.0783e-23 3.37909e-23 3.6376e-23 3.85036e-23 4.01808e-23 4.1447e-23 4.23628e-23 4.29971e-23 4.34181e-23 4.36858e-23 4.38489e-23 4.3944e-23 4.39973e-23 4.40258e-23 4.40405e-23 4.40477e-23 4.40511e-23 4.40527e-23 4.40533e-23 4.40536e-23 4.40537e-23 4.40538e-23 4.40538e-23 4.40538e-23 4.40538e-23 4.40538e-23 4.40538e-23 4.40538e-23 4.40538e-23 4.40538e-23 4.40538e-23 4.40538e-23 4.40538e-23 4.40538e-23 4.40538e-23 4.40538e-23 4.40538e-23 4.40538e-23 4.40538e-23 4.40538e-23 4.40538e-23 4.40538e-23 4.40538e-23 4.40538e-23 4.40538e-23 4.40538e-23 4.40538e-23 4.40538e-23 4.40538e-23 4.40538e-23 4.40538e-23 4.40538e-23 4.40538e-23 4.40538e-23 4.40538e-23 4.40538e-23 4.40538e-23 4.40538e-23 4.40538e-23 4.40538e-23 4.40538e-23 4.40538e-23 4.40538e-23 4.40538e-23 4.40538e-23 4.40538e-23 4.40538e-23 4.40538e-23 4.40538e-23 4.40538e-23 4.40538e-23 4.40538e-23 4.40538e-23 4.40538e-23 4.40538e-23 4.40538e-23 4.40538e-23 4.40538e-23 4.40538e-23 4.40538e-23 4.40538e-23 4.40538e-23 4.40538e-23 4.40538e-23 4.40538e-23 4.40538e-23 4.40538e-23 4.40538e-23 4.40538e-23 4.40538e-23 4.40538e-23 4.40538e-23 4.40538e-23 4.40538e-23 4.40538e-23 4.40538e-23 4.40538e-23 4.40538e-23 4.40538e-23 4.40538e-23 4.40538e-23 4.40538e-23 4.40538e-23 4.40537e-23 4.40536e-23 4.40533e-23 4.40527e-23 4.40511e-23 4.40477e-23 4.40405e-23 4.40258e-23 4.39973e-23 4.3944e-23 4.38489e-23 4.36858e-23 4.34181e-23 4.29971e-23 4.23628e-23 4.1447e-23 4.01808e-23 3.85036e-23 3.6376e-23 3.37909e-23 3.0783e-23 2.74312e-23 2.38544e-23 2.01994e-23 1.66226e-23 1.32708e-23 1.02629e-23 7.67782e-24 5.55018e-24 3.87302e-24 2.60677e-24 1.69104e-24 1.05667e-24 6.3568e-25 3.6801e-25 2.04949e-25 1.09763e-25 5.6517e-26 2.79713e-26 1.33037e-26 6.07975e-27 2.66921e-27 1.12565e-27 4.55925e-28 1.77336e-28 6.62314e-29 2.37486e-29 8.1746e-30 2.70078e-30 8.56337e-31 2.60534e-31 7.60454e-32 2.12907e-32 5.71641e-33 1.47155e-33 3.63105e-34 8.58567e-35 1.94476e-35 4.2185e-36 8.75966e-37 1.7405e-37 3.30764e-38 6.00906e-39 1.04303e-39 1.72875e-40 2.73407e-41 4.12262e-42 5.91348e-43 8.12753e-44 9.80909e-45 1.4013e-45 0 0 0 0 0 0 0 0 0 0 0 0 0 0 0 0 
0 0 0 0 0 0 0 0 0 0 0 0 0 0 0 1.4013e-45 1.26117e-44 9.94922e-44 7.41287e-43 5.26608e-42 3.5656e-41 2.30285e-40 1.41968e-39 8.36002e-39 4.70521e-38 2.53248e-37 1.30415e-36 6.42875e-36 3.03475e-35 1.37241e-34 5.94788e-34 2.47112e-33 9.84473e-33 3.76188e-32 1.37911e-31 4.85153e-31 1.63805e-30 5.30911e-30 1.65207e-29 4.93644e-29 1.41655e-28 3.90428e-28 1.03369e-27 2.62924e-27 6.42554e-27 1.50897e-26 3.40564e-26 7.3879e-26 1.54068e-25 3.0892e-25 5.9567e-25 1.10481e-24 1.97157e-24 3.38616e-24 5.59931e-24 8.91828e-24 1.36888e-23 2.02606e-23 2.89365e-23 3.99121e-23 5.32171e-23 6.86712e-23 8.58703e-23 1.0421e-22 1.22946e-22 1.41286e-22 1.58485e-22 1.73939e-22 1.87244e-22 1.9822e-22 2.06895e-22 2.13467e-22 2.18238e-22 2.21557e-22 2.2377e-22 2.25184e-22 2.26051e-22 2.2656e-22 2.26847e-22 2.27002e-22 2.27082e-22 2.27122e-22 2.27141e-22 2.2715e-22 2.27153e-22 2.27155e-22 2.27156e-22 2.27156e-22 2.27156e-22 2.27156e-22 2.27156e-22 2.27156e-22 2.27156e-22 2.27156e-22 2.27156e-22 2.27156e-22 2.27156e-22 2.27156e-22 2.27156e-22 2.27156e-22 2.27156e-22 2.27156e-22 2.27156e-22 2.27156e-22 2.27156e-22 2.27156e-22 2.27156e-22 2.27156e-22 2.27156e-22 2.27156e-22 2.27156e-22 2.27156e-22 2.27156e-22 2.27156e-22 2.27156e-22 2.27156e-22 2.27156e-22 2.27156e-22 2.27156e-22 2.27156e-22 2.27156e-22 2.27156e-22 2.27156e-22 2.27156e-22 2.27156e-22 2.27156e-22 2.27156e-22 2.27156e-22 2.27156e-22 2.27156e-22 2.27156e-22 2.27156e-22 2.27156e-22 2.27156e-22 2.27156e-22 2.27156e-22 2.27156e-22 2.27156e-22 2.27156e-22 2.27156e-22 2.27156e-22 2.27156e-22 2.27156e-22 2.27156e-22 2.27156e-22 2.27156e-22 2.27156e-22 2.27156e-22 2.27156e-22 2.27156e-22 2.27156e-22 2.27156e-22 2.27156e-22 2.27156e-22 2.27156e-22 2.27156e-22 2.27156e-22 2.27156e-22 2.27156e-22 2.27156e-22 2.27156e-22 2.27156e-22 2.27156e-22 2.27156e-22 2.27156e-22 2.27156e-22 2.27156e-22 2.27156e-22 2.27156e-22 2.27156e-22 2.27155e-22 2.27153e-22 2.2715e-22 2.27141e-22 2.27122e-22 2.27082e-22 2.27002e-22 2.26847e-22 2.2656e-22 2.26051e-22 2.25184e-22 2.2377e-22 2.21557e-22 2.18238e-22 2.13467e-22 2.06895e-22 1.9822e-22 1.87244e-22 1.73939e-22 1.58485e-22 1.41286e-22 1.22946e-22 1.0421e-22 8.58703e-23 6.86712e-23 5.32171e-23 3.99121e-23 2.89365e-23 2.02606e-23 1.36888e-23 8.91828e-24 5.59931e-24 3.38616e-24 1.97157e-24 1.10481e-24 5.9567e-25 3.0892e-25 1.54068e-25 7.3879e-26 3.40564e-26 1.50897e-26 6.42554e-27 2.62924e-27 1.03369e-27 3.90428e-28 1.41655e-28 4.93644e-29 1.65207e-29 5.30911e-30 1.63805e-30 4.85153e-31 1.37911e-31 3.76188e-32 9.84473e-33 2.47112e-33 5.94788e-34 1.37241e-34 3.03475e-35 6.42875e-36 1.30415e-36 2.53248e-37 4.70521e-38 8.36002e-39 1.41968e-39 2.30285e-40 3.5656e-41 5.26608e-42 7.41287e-43 9.94922e-44 1.26117e-44 1.4013e-45 0 0 0 0 0 0 0 0 0 0 0 0 0 0 0 
0 0 0 0 0 0 0 0 0 0 0 0 0 0 1.4013e-45 1.4013e-44 1.17709e-43 8.92627e-43 6.474e-42 4.47547e-41 2.95137e-40 1.85845e-39 1.11818e-38 6.43239e-38 3.53978e-37 1.86444e-36 9.40346e-36 4.54342e-35 2.10379e-34 9.33896e-34 3.9757e-33 1.62358e-32 6.36199e-32 2.39264e-31 8.63813e-31 2.99437e-30 9.96812e-30 3.18721e-29 9.78956e-29 2.88887e-28 8.1914e-28 2.23206e-27 5.84544e-27 1.47144e-26 3.56062e-26 8.28357e-26 1.85298e-25 3.98601e-25 8.24684e-25 1.6413e-24 3.14284e-24 5.79146e-24 1.0273e-23 1.75463e-23 2.88672e-23 4.57662e-23 6.99555e-23 1.03156e-22 1.46847e-22 2.01971e-22 2.68646e-22 3.45959e-22 4.31896e-22 5.23464e-22 6.1699e-22 7.08558e-22 7.94495e-22 8.71808e-22 9.38484e-22 9.93608e-22 1.0373e-21 1.0705e-21 1.09469e-21 1.11159e-21 1.12291e-21 1.13018e-21 1.13466e-21 1.13731e-21 1.13881e-21 1.13963e-21 1.14006e-21 1.14027e-21 1.14037e-21 1.14042e-21 1.14044e-21 1.14045e-21 1.14045e-21 1.14045e-21 1.14045e-21 1.14045e-21 1.14045e-21 1.14045e-21 1.14045e-21 1.14045e-21 1.14045e-21 1.14045e-21 1.14045e-21 1.14045e-21 1.14045e-21 1.14045e-21 1.14045e-21 1.14045e-21 1.14045e-21 1.14045e-21 1.14045e-21 1.14045e-21 1.14045e-21 1.14045e-21 1.14045e-21 1.14045e-21 1.14045e-21 1.14045e-21 1.14045e-21 1.14045e-21 1.14045e-21 1.14045e-21 1.14045e-21 1.14045e-21 1.14045e-21 1.14045e-21 1.14045e-21 1.14045e-21 1.14045e-21 1.14045e-21 1.14045e-21 1.14045e-21 1.14045e-21 1.14045e-21 1.14045e-21 1.14045e-21 1.14045e-21 1.14045e-21 1.14045e-21 1.14045e-21 1.14045e-21 1.14045e-21 1.14045e-21 1.14045e-21 1.14045e-21 1.14045e-21 1.14045e-21 1.14045e-21 1.14045e-21 1.14045e-21 1.14045e-21 1.14045e-21 1.14045e-21 1.14045e-21 1.14045e-21 1.14045e-21 1.14045e-21 1.14045e-21 1.14045e-21 1.14045e-21 1.14045e-21 1.14045e-21 1.14045e-21 1.14045e-21 1.14045e-21 1.14045e-21 1.14045e-21 1.14045e-21 1.14045e-21 1.14045e-21 1.14045e-21 1.14045e-21 1.14045e-21 1.14045e-21 1.14045e-21 1.14045e-21 1.14045e-21 1.14044e-21 1.14042e-21 1.14037e-21 1.14027e-21 1.14006e-21 1.13963e-21 1.13881e-21 1.13731e-21 1.13466e-21 1.13018e-21 1.12291e-21 1.11159e-21 1.09469e-21 1.0705e-21 1.0373e-21 9.93608e-22 9.38484e-22 8.71808e-22 7.94495e-22 7.08558e-22 6.1699e-22 5.23464e-22 4.31896e-22 3.45959e-22 2.68646e-22 2.01971e-22 1.46847e-22 1.03156e-22 6.99555e-23 4.57662e-23 2.88672e-23 1.75463e-23 1.0273e-23 5.79146e-24 3.14284e-24 1.6413e-24 8.24684e-25 3.98601e-25 1.85298e-25 8.28357e-26 3.56062e-26 1.47144e-26 5.84544e-27 2.23206e-27 8.1914e-28 2.88887e-28 9.78956e-29 3.18721e-29 9.96812e-30 2.99437e-30 8.63813e-31 2.39264e-31 6.36199e-32 1.62358e-32 3.9757e-33 9.33896e-34 2.10379e-34 4.54342e-35 9.40346e-36 1.86444e-36 3.53978e-37 6.43239e-38 1.11818e-38 1.85845e-39 2.95137e-40 4.47547e-41 6.474e-42 8.92627e-43 1.17709e-43 1.4013e-44 1.4013e-45 0 0 0 0 0 0 0 0 0 0 0 0 0 0 
0 0 0 0 0 0 0 0 0 0 0 0 0 1.4013e-45 1.54143e-44 1.33123e-43 1.03696e-42 7.66791e-42 5.40733e-41 3.63987e-40 2.34023e-39 1.43815e-38 8.45261e-38 4.75406e-37 2.56007e-36 1.32056e-35 6.52783e-35 3.09356e-34 1.40599e-33 6.13035e-33 2.56503e-32 1.03021e-31 3.97271e-31 1.47121e-30 5.23332e-30 1.78843e-29 5.87257e-29 1.85316e-28 5.62061e-28 1.63868e-27 4.59297e-27 1.23775e-26 3.20738e-26 7.99274e-26 1.91563e-25 4.41618e-25 9.79373e-25 2.08965e-24 4.29024e-24 8.47706e-24 1.6123e-23 2.9524e-23 5.20654e-23 8.845e-23 1.44803e-22 2.28543e-22 3.47928e-22 5.11204e-22 7.25409e-22 9.94962e-22 1.32031e-21 1.69693e-21 2.11506e-21 2.56028e-21 3.01491e-21 3.46012e-21 3.87826e-21 4.25488e-21 4.58023e-21 4.84978e-21 5.06398e-21 5.22726e-21 5.34665e-21 5.43039e-21 5.48674e-21 5.52312e-21 5.54566e-21 5.55907e-21 5.56671e-21 5.5709e-21 5.5731e-21 5.57421e-21 5.57475e-21 5.575e-21 5.57511e-21 5.57516e-21 5.57518e-21 5.57518e-21 5.57519e-21 5.57519e-21 5.57519e-21 5.57519e-21 5.57519e-21 5.57519e-21 5.57519e-21 5.57519e-21 5.57519e-21 5.57519e-21 5.57519e-21 5.57519e-21 5.57519e-21 5.57519e-21 5.57519e-21 5.57519e-21 5.57519e-21 5.57519e-21 5.57519e-21 5.57519e-21 5.57519e-21 5.57519e-21 5.57519e-21 5.57519e-21 5.57519e-21 5.57519e-21 5.57519e-21 5.57519e-21 5.57519e-21 5.57519e-21 5.57519e-21 5.57519e-21 5.57519e-21 5.57519e-21 5.57519e-21 5.57519e-21 5.57519e-21 5.57519e-21 5.57519e-21 5.57519e-21 5.57519e-21 5.57519e-21 5.57519e-21 5.57519e-21 5.57519e-21 5.57519e-21 5.57519e-21 5.57519e-21 5.57519e-21 5.57519e-21 5.57519e-21 5.57519e-21 5.57519e-21 5.57519e-21 5.57519e-21 5.57519e-21 5.57519e-21 5.57519e-21 5.57519e-21 5.57519e-21 5.57519e-21 5.57519e-21 5.57519e-21 5.57519e-21 5.57519e-21 5.57519e-21 5.57519e-21 5.57519e-21 5.57519e-21 5.57519e-21 5.57519e-21 5.57519e-21 5.57519e-21 5.57519e-21 5.57519e-21 5.57519e-21 5.57519e-21 5.57519e-21 5.57519e-21 5.57519e-21 5.57518e-21 5.57518e-21 5.57516e-21 5.57511e-21 5.575e-21 5.57475e-21 5.57421e-21 5.5731e-21 5.5709e-21 5.56671e-21 5.55907e-21 5.54566e-21 5.52312e-21 5.48674e-21 5.43039e-21 5.34665e-21 5.22726e-21 5.06398e-21 4.84978e-21 4.58023e-21 4.25488e-21 3.87826e-21 3.46012e-21 3.01491e-21 2.56028e-21 2.11506e-21 1.69693e-21 1.32031e-21 9.94962e-22 7.25409e-22 5.11204e-22 3.47928e-22 2.28543e-22 1.44803e-22 8.845e-23 5.20654e-23 2.9524e-23 1.6123e-23 8.47706e-24 4.29024e-24 2.08965e-24 9.79373e-25 4.41618e-25 1.91563e-25 7.99274e-26 3.20738e-26 1.23775e-26 4.59297e-27 1.63868e-27 5.62061e-28 1.85316e-28 5.87257e-29 1.78843e-29 5.23332e-30 1.47121e-30 3.97271e-31 1.03021e-31 2.56503e-32 6.13035e-33 1.40599e-33 3.09356e-34 6.52783e-35 1.32056e-35 2.56007e-36 4.75406e-37 8.45261e-38 1.43815e-38 2.34023e-39 3.63987e-40 5.40733e-41 7.66791e-42 1.03696e-42 1.33123e-43 1.54143e-44 1.4013e-45 0 0 0 0 0 0 0 0 0 0 0 0 0 
0 0 0 0 0 0 0 0 0 0 0 0 1.4013e-45 1.68156e-44 1.45735e-43 1.15887e-42 8.7441e-42 6.29015e-41 4.32027e-40 2.83519e-39 1.77893e-38 1.06786e-37 6.1362e-37 3.37705e-36 1.7809e-35 9.00313e-35 4.36491e-34 2.03023e-33 9.06242e-33 3.88336e-32 1.59791e-31 6.31525e-31 2.39783e-30 8.74828e-30 3.06751e-29 1.03391e-28 3.35021e-28 1.04381e-27 3.12735e-27 9.01143e-27 2.49756e-26 6.65869e-26 1.70786e-25 4.21454e-25 1.00075e-24 2.28675e-24 5.02899e-24 1.06455e-23 2.16937e-23 4.25651e-23 8.04275e-23 1.4638e-22 2.56681e-22 4.33783e-22 7.06759e-22 1.11064e-21 1.68418e-21 2.46587e-21 3.48833e-21 4.77172e-21 6.31753e-21 8.10409e-21 1.00853e-20 1.21933e-20 1.43455e-20 1.64535e-20 1.84347e-20 2.02213e-20 2.17671e-20 2.30505e-20 2.40729e-20 2.48546e-20 2.54282e-20 2.5832e-20 2.6105e-20 2.62821e-20 2.63924e-20 2.64584e-20 2.64962e-20 2.65171e-20 2.65282e-20 2.65338e-20 2.65365e-20 2.65378e-20 2.65384e-20 2.65386e-20 2.65387e-20 2.65388e-20 2.65388e-20 2.65388e-20 2.65388e-20 2.65388e-20 2.65388e-20 2.65388e-20 2.65388e-20 2.65388e-20 2.65388e-20 2.65388e-20 2.65388e-20 2.65388e-20 2.65388e-20 2.65388e-20 2.65388e-20 2.65388e-20 2.65388e-20 2.65388e-20 2.65388e-20 2.65388e-20 2.65388e-20 2.65388e-20 2.65388e-20 2.65388e-20 2.65388e-20 2.65388e-20 2.65388e-20 2.65388e-20 2.65388e-20 2.65388e-20 2.65388e-20 2.65388e-20 2.65388e-20 2.65388e-20 2.65388e-20 2.65388e-20 2.65388e-20 2.65388e-20 2.65388e-20 2.65388e-20 2.65388e-20 2.65388e-20 2.65388e-20 2.65388e-20 2.65388e-20 2.65388e-20 2.65388e-20 2.65388e-20 2.65388e-20 2.65388e-20 2.65388e-20 2.65388e-20 2.65388e-20 2.65388e-20 2.65388e-20 2.65388e-20 2.65388e-20 2.65388e-20 2.65388e-20 2.65388e-20 2.65388e-20 2.65388e-20 2.65388e-20 2.65388e-20 2.65388e-20 2.65388e-20 2.65388e-20 2.65388e-20 2.65388e-20 2.65388e-20 2.65388e-20 2.65388e-20 2.65388e-20 2.65388e-20 2.65388e-20 2.65388e-20 2.65388e-20 2.65388e-20 2.65388e-20 2.65388e-20 2.65388e-20 2.65387e-20 2.65386e-20 2.65384e-20 2.65378e-20 2.65365e-20 2.65338e-20 2.65282e-20 2.65171e-20 2.64962e-20 2.64584e-20 2.63924e-20 2.62821e-20 2.6105e-20 2.5832e-20 2.54282e-20 2.48546e-20 2.40729e-20 2.30505e-20 2.17671e-20 2.02213e-20 1.84347e-20 1.64535e-20 1.43455e-20 1.21933e-20 1.00853e-20 8.10409e-21 6.31753e-21 4.77172e-21 3.48833e-21 2.46587e-21 1.68418e-21 1.11064e-21 7.06759e-22 4.33783e-22 2.56681e-22 1.4638e-22 8.04275e-23 4.25651e-23 2.16937e-23 1.06455e-23 5.02899e-24 2.28675e-24 1.00075e-24 4.21454e-25 1.70786e-25 6.65869e-26 2.49756e-26 9.01143e-27 3.12735e-27 1.04381e-27 3.35021e-28 1.03391e-28 3.06751e-29 8.74828e-30 2.39783e-30 6.31525e-31 1.59791e-31 3.88336e-32 9.06242e-33 2.03023e-33 4.36491e-34 9.00313e-35 1.7809e-35 3.37705e-36 6.1362e-37 1.06786e-37 1.77893e-38 2.83519e-39 4.32027e-40 6.29015e-41 8.7441e-42 1.15887e-42 1.45735e-43 1.68156e-44 1.4013e-45 0 0 0 0 0 0 0 0 0 0 0 0 