<?xml version="1.0"?>
<VTKFile type="ImageData" version="0.1" byte_order="LittleEndian">
  <ImageData WholeExtent="0 255 0 255 0 0" Origin="0 0 0" Spacing="1 1 1">
  <Piece Extent="0 255 0 255 0 0">
    <PointData>
      <DataArray type="Float32" Name="scalar_data" format="ascii" >0 0 0 0 0 0 0 0 0 0 0 0 0 0 0 0 0 0 0 0 0 0 0 0 0 0 0 0 0 0 0 0 0 0 0 0 0 0 0 0 0 0 0 0 0 0 0 0 0 0 0 0 0 0 0 0 0 0 0 0 0 0 0 0 0 0 0 0 0 0 0 0 0 0 0 0 0 0 0 0 0 0 0 0 0 0 0 0 0 0 0 0 0 0 0 0 0 0 0 0 0 0 0 0 0 0 0 0 0 0 0 0 0 0 0 0 0 0 0 0 0 0 0 0 0 0 0 0 0 0 0 0 0 0 0 0 0 0 0 0 0 0 0 0 0 0 0 0 0 0 0 0 0 0 0 0 0 0 0 0 0 0 0 0 0 0 0 0 0 0 0 0 0 0 0 0 0 0 0 0 0 0 0 0 0 0 0 0 0 0 0 0 0 0 0 0 0 0 0 0 0 0 0 0 0 0 0 0 0 0 0 0 0 0 0 0 0 0 0 0 0 0 0 0 0 0 0 0 0 0 0 0 0 0 0 0 0 0 0 0 0 0 0 0 0 0 0 0 0 0 0 0 0 0 0 0 
0 0 0 0 0 0 0 0 0 0 0 0 0 0 0 0 0 0 0 0 0 0 0 0 0 0 0 0 0 0 0 0 0 0 0 0 0 0 0 0 0 0 0 0 0 0 0 0 0 0 0 0 0 0 0 0 0 0 0 0 0 0 0 0 0 0 0 0 0 0 0 0 0 0 0 0 0 0 0 0 0 0 0 0 0 0 0 0 0 0 0 0 0 0 0 0 0 0 0 0 0 0 0 0 0 0 0 0 0 0 0 0 0 0 0 0 0 0 0 0 0 0 0 0 0 0 0 0 0 0 0 0 0 0 0 0 0 0 0 0 0 0 0 0 0 0 0 0 0 0 0 0 0 0 0 0 0 0 0 0 0 0 0 0 0 0 0 0 0 0 0 0 0 0 0 0 0 0 0 0 0 0 0 0 0 0 0 0 0 0 0 0 0 0 0 0 0 0 0 0 0 0 0 0 0 0 0 0 0 0 0 0 0 0 0 0 0 0 0 0 0 0 0 0 0 0 0 0 0 0 0 0 0 0 0 0 0 0 0 0 0 0 0 0 0 0 0 0 0 0 0 0 0 0 0 0 
0 0 0 0 0 0 0 0 0 0 0 0 0 0 0 0 0 0 0 0 0 0 0 0 0 0 0 0 0 0 0 0 0 0 0 0 0 0 0 0 0 0 0 0 0 0 0 0 0 0 0 0 0 0 0 0 0 0 0 0 0 0 0 0 0 0 0 0 0 0 0 0 0 0 0 0 0 0 0 0 0 0 0 0 0 0 0 0 0 0 0 0 0 0 0 0 0 0 0 0 0 0 0 0 0 0 0 0 0 0 0 0 0 0 0 0 0 0 0 0 0 0 0 0 0 0 0 0 0 0 0 0 0 0 0 0 0 0 0 0 0 0 0 0 0 0 0 0 0 0 0 0 0 0 0 0 0 0 0 0 0 0 0 0 0 0 0 0 0 0 0 0 0 0 0 0 0 0 0 0 0 0 0 0 0 0 0 0 0 0 0 0 0 0 0 0 0 0 0 0 0 0 0 0 0 0 0 0 0 0 0 0 0 0 0 0 0 0 0 0 0 0 0 0 0 0 0 0 0 0 0 0 0 0 0 0 0 0 0 0 0 0 0 0 0 0 0 0 0 0 0 0 0 0 0 0 
0 0 0 0 0 0 0 0 0 0 0 0 0 0 0 0 0 0 0 0 0 0 0 0 0 0 0 0 0 0 0 0 0 0 0 0 0 0 0 0 0 0 0 0 0 0 0 0 0 0 0 0 0 0 0 0 0 0 0 0 0 0 0 0 0 0 0 0 0 0 0 0 0 0 0 0 0 0 0 0 0 0 0 0 0 0 0 0 0 0 0 0 0 0 0 0 0 0 0 0 0 0 0 0 0 0 0 0 0 0 0 0 0 0 0 0 0 0 0 0 0 0 0 0 0 0 0 0 0 0 0 0 0 0 0 0 0 0 0 0 0 0 0 0 0 0 0 0 0 0 0 0 0 0 0 0 0 0 0 0 0 0 0 0 0 0 0 0 0 0 0 0 0 0 0 0 0 0 0 0 0 0 0 0 0 0 0 0 0 0 0 0 0 0 0 0 0 0 0 0 0 0 0 0 0 0 0 0 0 0 0 0 0 0 0 0 0 0 0 0 0 0 0 0 0 0 0 0 0 0 0 0 0 0 0 0 0 0 0 0 0 0 0 0 0 0 0 0 0 0 0 0 0 0 0 0 
0 0 0 0 0 0 0 0 0 0 0 0 0 0 0 0 0 0 0 0 0 0 0 0 0 0 0 0 0 0 0 0 0 0 0 0 0 0 0 0 0 0 0 0 0 0 0 0 0 0 0 0 0 0 0 0 0 0 0 0 0 0 0 0 0 0 0 0 0 0 0 0 0 0 0 0 0 0 0 0 0 0 0 0 0 0 0 0 0 0 0 0 0 0 0 0 0 0 0 0 0 0 0 0 0 0 0 0 0 0 0 0 0 0 0 0 0 0 0 0 0 0 0 0 0 0 0 0 0 0 0 0 0 0 0 0 0 0 0 0 0 0 0 0 0 0 0 0 0 0 0 0 0 0 0 0 0 0 0 0 0 0 0 0 0 0 0 0 0 0 0 0 0 0 0 0 0 0 0 0 0 0 0 0 0 0 0 0 0 0 0 0 0 0 0 0 0 0 0 0 0 0 0 0 0 0 0 0 0 0 0 0 0 0 0 0 0 0 0 0 0 0 0 0 0 0 0 0 0 0 0 0 0 0 0 0 0 0 0 0 0 0 0 0 0 0 0 0 0 0 0 0 0 0 0 0 
0 0 0 0 0 0 0 0 0 0 0 0 0 0 0 0 0 0 0 0 0 0 0 0 0 0 0 0 0 0 0 0 0 0 0 0 0 0 0 0 0 0 0 0 0 0 0 0 0 0 0 0 0 0 0 0 0 0 0 0 0 0 0 0 0 0 0 0 0 0 0 0 0 0 0 0 0 0 0 0 0 0 0 0 0 0 0 0 0 0 0 0 0 0 0 0 0 0 0 0 0 0 0 0 0 0 0 0 0 0 0 0 0 0 0 0 0 0 0 0 0 0 0 0 0 0 0 0 0 0 0 0 0 0 0 0 0 0 0 0 0 0 0 0 0 0 0 0 0 0 0 0 0 0 0 0 0 0 0 0 0 0 0 0 0 0 0 0 0 0 0 0 0 0 0 0 0 0 0 0 0 0 0 0 0 0 0 0 0 0 0 0 0 0 0 0 0 0 0 0 0 0 0 0 0 0 0 0 0 0 0 0 0 0 0 0 0 0 0 0 0 0 0 0 0 0 0 0 0 0 0 0 0 0 0 0 0 0 0 0 0 0 0 0 0 0 0 0 0 0 0 0 0 0 0 0 
0 0 0 0 0 0 0 0 0 0 0 0 0 0 0 0 0 0 0 0 0 0 0 0 0 0 0 0 0 0 0 0 0 0 0 0 0 0 0 0 0 0 0 0 0 0 0 0 0 0 0 0 0 0 0 0 0 0 0 0 0 0 0 0 0 0 0 0 0 0 0 0 0 0 0 0 0 0 0 0 0 0 0 0 0 0 0 0 0 0 0 0 0 0 0 0 0 0 0 0 0 0 0 0 0 0 0 0 0 0 0 0 0 0 0 0 0 0 0 0 0 0 0 0 0 0 0 0 0 0 0 0 0 0 0 0 0 0 0 0 0 0 0 0 0 0 0 0 0 0 0 0 0 0 0 0 0 0 0 0 0 0 0 0 0 0 0 0 0 0 0 0 0 0 0 0 0 0 0 0 0 0 0 0 0 0 0 0 0 0 0 0 0 0 0 0 0 0 0 0 0 0 0 0 0 0 0 0 0 0 0 0 0 0 0 0 0 0 0 0 0 0 0 0 0 0 0 0 0 0 0 0 0 0 0 0 0 0 0 0 0 0 0 0 0 0 0 0 0 0 0 0 0 0 0 0 
0 0 0 0 0 0 0 0 0 0 0 0 0 0 0 0 0 0 0 0 0 0 0 0 0 0 0 0 0 0 0 0 0 0 0 0 0 0 0 0 0 0 0 0 0 0 0 0 0 0 0 0 0 0 0 0 0 0 0 0 0 0 0 0 0 0 0 0 0 0 0 0 0 0 0 0 0 0 0 0 0 0 0 0 0 0 0 0 0 0 0 0 0 0 0 0 0 0 0 0 0 0 0 0 0 0 0 0 0 0 0 0 0 0 0 0 0 0 0 0 0 0 0 0 0 0 0 0 0 0 0 0 0 0 0 0 0 0 0 0 0 0 0 0 0 0 0 0 0 0 0 0 0 0 0 0 0 0 0 0 0 0 0 0 0 0 0 0 0 0 0 0 0 0 0 0 0 0 0 0 0 0 0 0 0 0 0 0 0 0 0 0 0 0 0 0 0 0 0 0 0 0 0 0 0 0 0 0 0 0 0 0 0 0 0 0 0 0 0 0 0 0 0 0 0 0 0 0 0 0 0 0 0 0 0 0 0 0 0 0 0 0 0 0 0 0 0 0 0 0 0 0 0 0 0 0 
0 0 0 0 0 0 0 0 0 0 0 0 0 0 0 0 0 0 0 0 0 0 0 0 0 0 0 0 0 0 0 0 0 0 0 0 0 0 0 0 0 0 0 0 0 0 0 0 0 0 0 0 0 0 0 0 0 0 0 0 0 0 0 0 0 0 0 0 0 0 0 0 0 0 0 0 0 0 0 0 0 0 0 0 0 0 0 0 0 0 0 0 0 0 0 0 0 0 0 0 0 0 0 0 0 0 0 0 0 0 0 0 0 0 0 0 0 0 0 0 0 0 0 0 0 0 0 0 0 0 0 0 0 0 0 0 0 0 0 0 0 0 0 0 0 0 0 0 0 0 0 0 0 0 0 0 0 0 0 0 0 0 0 0 0 0 0 0 0 0 0 0 0 0 0 0 0 0 0 0 0 0 0 0 0 0 0 0 0 0 0 0 0 0 0 0 0 0 0 0 0 0 0 0 0 0 0 0 0 0 0 0 0 0 0 0 0 0 0 0 0 0 0 0 0 0 0 0 0 0 0 0 0 0 0 0 0 0 0 0 0 0 0 0 0 0 0 0 0 0 0 0 0 0 0 0 
0 0 0 0 0 0 0 0 0 0 0 0 0 0 0 0 0 0 0 0 0 0 0 0 0 0 0 0 0 0 0 0 0 0 0 0 0 0 0 0 0 0 0 0 0 0 0 0 0 0 0 0 0 0 0 0 0 0 0 0 0 0 0 0 0 0 0 0 0 0 0 0 0 0 0 0 0 0 0 0 0 0 0 0 0 0 0 0 0 0 0 0 0 0 0 0 0 0 0 0 0 0 0 0 0 0 0 0 0 0 0 0 0 0 0 0 0 0 0 0 0 0 0 0 0 0 0 0 0 0 0 0 0 0 0 0 0 0 0 0 0 0 0 0 0 0 0 0 0 0 0 0 0 0 0 0 0 0 0 0 0 0 0 0 0 0 0 0 0 0 0 0 0 0 0 0 0 0 0 0 0 0 0 0 0 0 0 0 0 0 0 0 0 0 0 0 0 0 0 0 0 0 0 0 0 0 0 0 0 0 0 0 0 0 0 0 0 0 0 0 0 0 0 0 0 0 0 0 0 0 0 0 0 0 0 0 0 0 0 0 0 0 0 0 0 0 0 0 0 0 0 0 0 0 0 0 
0 0 0 0 0 0 0 0 0 0 0 0 0 0 0 0 0 0 0 0 0 0 0 0 0 0 0 0 0 0 0 0 0 0 0 0 0 0 0 0 0 0 0 0 0 0 0 0 0 0 0 0 0 0 0 0 0 0 0 0 0 0 0 0 0 0 0 0 0 0 0 0 0 0 0 0 0 0 0 0 0 0 0 0 0 0 0 0 0 0 0 0 0 0 0 0 0 0 0 0 0 0 0 0 0 0 0 0 0 0 0 0 0 0 0 0 0 0 0 0 0 0 0 0 0 0 0 0 0 0 0 0 0 0 0 0 0 0 0 0 0 0 0 0 0 0 0 0 0 0 0 0 0 0 0 0 0 0 0 0 0 0 0 0 0 0 0 0 0 0 0 0 0 0 0 0 0 0 0 0 0 0 0 0 0 0 0 0 0 0 0 0 0 0 0 0 0 0 0 0 0 0 0 0 0 0 0 0 0 0 0 0 0 0 0 0 0 0 0 0 0 0 0 0 0 0 0 0 0 0 0 0 0 0 0 0 0 0 0 0 0 0 0 0 0 0 0 0 0 0 0 0 0 0 0 0 
0 0 0 0 0 0 0 0 0 0 0 0 0 0 0 0 0 0 0 0 0 0 0 0 0 0 0 0 0 0 0 0 0 0 0 0 0 0 0 0 0 0 0 0 0 0 0 0 0 0 0 0 0 0 0 0 0 0 0 0 0 0 0 0 0 0 0 0 0 0 0 0 0 0 0 0 0 0 0 0 0 0 0 0 0 0 0 0 0 0 0 0 0 0 0 0 0 0 0 0 0 0 0 0 0 0 0 0 0 0 0 0 0 0 0 0 0 0 0 0 0 0 0 0 0 0 0 0 0 0 0 0 0 0 0 0 0 0 0 0 0 0 0 0 0 0 0 0 0 0 0 0 0 0 0 0 0 0 0 0 0 0 0 0 0 0 0 0 0 0 0 0 0 0 0 0 0 0 0 0 0 0 0 0 0 0 0 0 0 0 0 0 0 0 0 0 0 0 0 0 0 0 0 0 0 0 0 0 0 0 0 0 0 0 0 0 0 0 0 0 0 0 0 0 0 0 0 0 0 0 0 0 0 0 0 0 0 0 0 0 0 0 0 0 0 0 0 0 0 0 0 0 0 0 0 0 
0 0 0 0 0 0 0 0 0 0 0 0 0 0 0 0 0 0 0 0 0 0 0 0 0 0 0 0 0 0 0 0 0 0 0 0 0 0 0 0 0 0 0 0 0 0 0 0 0 0 0 0 0 0 0 0 0 0 0 0 0 0 0 0 0 0 0 0 0 0 0 0 0 0 0 0 0 0 0 0 0 0 0 0 0 0 0 0 0 0 0 0 0 0 0 0 0 0 0 0 0 0 0 0 0 0 0 0 0 0 0 0 0 0 0 0 0 0 0 0 0 0 0 0 0 0 0 0 0 0 0 0 0 0 0 0 0 0 0 0 0 0 0 0 0 0 0 0 0 0 0 0 0 0 0 0 0 0 0 0 0 0 0 0 0 0 0 0 0 0 0 0 0 0 0 0 0 0 0 0 0 0 0 0 0 0 0 0 0 0 0 0 0 0 0 0 0 0 0 0 0 0 0 0 0 0 0 0 0 0 0 0 0 0 0 0 0 0 0 0 0 0 0 0 0 0 0 0 0 0 0 0 0 0 0 0 0 0 0 0 0 0 0 0 0 0 0 0 0 0 0 0 0 0 0 0 
0 0 0 0 0 0 0 0 0 0 0 0 0 0 0 0 0 0 0 0 0 0 0 0 0 0 0 0 0 0 0 0 0 0 0 0 0 0 0 0 0 0 0 0 0 0 0 0 0 0 0 0 0 0 0 0 0 0 0 0 0 0 0 0 2.8026e-45 2.8026e-45 2.8026e-45 2.8026e-45 2.8026e-45 2.8026e-45 2.8026e-45 2.8026e-45 2.8026e-45 2.8026e-45 2.8026e-45 2.8026e-45 2.8026e-45 2.8026e-45 2.8026e-45 2.8026e-45 2.8026e-45 2.8026e-45 2.8026e-45 2.8026e-45 2.8026e-45 2.8026e-45 2.8026e-45 2.8026e-45 2.8026e-45 2.8026e-45 2.8026e-45 2.8026e-45 2.8026e-45 2.8026e-45 2.8026e-45 2.8026e-45 2.8026e-45 2.8026e-45 2.8026e-45 2.8026e-45 2.8026e-45 2.8026e-45 2.8026e-45 2.8026e-45 2.8026e-45 2.8026e-45 2.8026e-45 2.8026e-45 2.8026e-45 2.8026e-45 2.8026e-45 2.8026e-45 2.8026e-45 2.8026e-45 2.8026e-45 2.8026e-45 2.8026e-45 2.8026e-45 2.8026e-45 2.8026e-45 2.8026e-45 2.8026e-45 2.8026e-45 2.8026e-45 2.8026e-45 2.8026e-45 2.8026e-45 2.8026e-45 2.8026e-45 2.8026e-45 2.8026e-45 2.8026e-45 2.8026e-45 2.8026e-45 2.8026e-45 2.8026e-45 2.8026e-45 2.8026e-45 2.8026e-45 2.8026e-45 2.8026e-45 2.8026e-45 2.8026e-45 2.8026e-45 2.8026e-45 2.8026e-45 2.8026e-45 2.8026e-45 2.8026e-45 2.8026e-45 2.8026e-45 2.8026e-45 2.8026e-45 2.8026e-45 2.8026e-45 2.8026e-45 2.8026e-45 2.8026e-45 2.8026e-45 2.8026e-45 2.8026e-45 2.8026e-45 2.8026e-45 2.8026e-45 2.8026e-45 2.8026e-45 2.8026e-45 2.8026e-45 2.8026e-45 2.8026e-45 2.8026e-45 2.8026e-45 2.8026e-45 2.8026e-45 2.8026e-45 2.8026e-45 2.8026e-45 2.8026e-45 2.8026e-45 2.8026e-45 2.8026e-45 2.8026e-45 2.8026e-45 2.8026e-45 2.8026e-45 2.8026e-45 2.8026e-45 2.8026e-45 2.8026e-45 2.8026e-45 2.8026e-45 2.8026e-45 0 0 0 0 0 0 0 0 0 0 0 0 0 0 0 0 0 0 0 0 0 0 0 0 0 0 0 0 0 0 0 0 0 0 0 0 0 0 0 0 0 0 0 0 0 0 0 0 0 0 0 0 0 0 0 0 0 0 0 0 0 0 0 0 
0 0 0 0 0 0 0 0 0 0 0 0 0 0 0 0 0 0 0 0 0 0 0 0 0 0 0 0 0 0 0 0 0 0 0 0 0 0 0 0 0 0 0 0 0 0 0 0 0 0 0 0 0 0 0 0 0 0 0 0 0 0 1.4013e-44 1.31722e-43 3.95166e-43 5.12875e-43 5.26888e-43 5.26888e-43 5.26888e-43 5.26888e-43 5.26888e-43 5.26888e-43 5.26888e-43 5.26888e-43 5.26888e-43 5.26888e-43 5.26888e-43 5.26888e-43 5.26888e-43 5.26888e-43 5.26888e-43 5.26888e-43 5.26888e-43 5.26888e-43 5.26888e-43 5.26888e-43 5.26888e-43 5.26888e-43 5.26888e-43 5.26888e-43 5.26888e-43 5.26888e-43 5.26888e-43 5.26888e-43 5.26888e-43 5.26888e-43 5.26888e-43 5.26888e-43 5.26888e-43 5.26888e-43 5.26888e-43 5.26888e-43 5.26888e-43 5.26888e-43 5.26888e-43 5.26888e-43 5.26888e-43 5.26888e-43 5.26888e-43 5.26888e-43 5.26888e-43 5.26888e-43 5.26888e-43 5.26888e-43 5.26888e-43 5.26888e-43 5.26888e-43 5.26888e-43 5.26888e-43 5.26888e-43 5.26888e-43 5.26888e-43 5.26888e-43 5.26888e-43 5.26888e-43 5.26888e-43 5.26888e-43 5.26888e-43 5.26888e-43 5.26888e-43 5.26888e-43 5.26888e-43 5.26888e-43 5.26888e-43 5.26888e-43 5.26888e-43 5.26888e-43 5.26888e-43 5.26888e-43 5.26888e-43 5.26888e-43 5.26888e-43 5.26888e-43 5.26888e-43 5.26888e-43 5.26888e-43 5.26888e-43 5.26888e-43 5.26888e-43 5.26888e-43 5.26888e-43 5.26888e-43 5.26888e-43 5.26888e-43 5.26888e-43 5.26888e-43 5.26888e-43 5.26888e-43 5.26888e-43 5.26888e-43 5.26888e-43 5.26888e-43 5.26888e-43 5.26888e-43 5.26888e-43 5.26888e-43 5.26888e-43 5.26888e-43 5.26888e-43 5.26888e-43 5.26888e-43 5.26888e-43 5.26888e-43 5.26888e-43 5.26888e-43 5.26888e-43 5.26888e-43 5.26888e-43 5.26888e-43 5.26888e-43 5.26888e-43 5.26888e-43 5.26888e-43 5.26888e-43 5.26888e-43 5.26888e-43 5.26888e-43 5.26888e-43 5.26888e-43 5.26888e-43 5.12875e-43 3.95166e-43 1.31722e-43 1.4013e-44 0 0 0 0 0 0 0 0 0 0 0 0 0 0 0 0 0 0 0 0 0 0 0 0 0 0 0 0 0 0 0 0 0 0 0 0 0 0 0 0 0 0 0 0 0 0 0 0 0 0 0 0 0 0 0 0 0 0 0 0 0 0 
0 0 0 0 0 0 0 0 0 0 0 0 0 0 0 0 0 0 0 0 0 0 0 0 0 0 0 0 0 0 0 0 0 0 0 0 0 0 0 0 0 0 0 0 0 0 0 0 0 0 0 0 0 0 0 0 0 0 0 0 0 2.42425e-43 3.15993e-42 1.56441e-41 3.73166e-41 4.98007e-41 5.27197e-41 5.29607e-41 5.29607e-41 5.29607e-41 5.29607e-41 5.29607e-41 5.29607e-41 5.29607e-41 5.29607e-41 5.29607e-41 5.29607e-41 5.29607e-41 5.29607e-41 5.29607e-41 5.29607e-41 5.29607e-41 5.29607e-41 5.29607e-41 5.29607e-41 5.29607e-41 5.29607e-41 5.29607e-41 5.29607e-41 5.29607e-41 5.29607e-41 5.29607e-41 5.29607e-41 5.29607e-41 5.29607e-41 5.29607e-41 5.29607e-41 5.29607e-41 5.29607e-41 5.29607e-41 5.29607e-41 5.29607e-41 5.29607e-41 5.29607e-41 5.29607e-41 5.29607e-41 5.29607e-41 5.29607e-41 5.29607e-41 5.29607e-41 5.29607e-41 5.29607e-41 5.29607e-41 5.29607e-41 5.29607e-41 5.29607e-41 5.29607e-41 5.29607e-41 5.29607e-41 5.29607e-41 5.29607e-41 5.29607e-41 5.29607e-41 5.29607e-41 5.29607e-41 5.29607e-41 5.29607e-41 5.29607e-41 5.29607e-41 5.29607e-41 5.29607e-41 5.29607e-41 5.29607e-41 5.29607e-41 5.29607e-41 5.29607e-41 5.29607e-41 5.29607e-41 5.29607e-41 5.29607e-41 5.29607e-41 5.29607e-41 5.29607e-41 5.29607e-41 5.29607e-41 5.29607e-41 5.29607e-41 5.29607e-41 5.29607e-41 5.29607e-41 5.29607e-41 5.29607e-41 5.29607e-41 5.29607e-41 5.29607e-41 5.29607e-41 5.29607e-41 5.29607e-41 5.29607e-41 5.29607e-41 5.29607e-41 5.29607e-41 5.29607e-41 5.29607e-41 5.29607e-41 5.29607e-41 5.29607e-41 5.29607e-41 5.29607e-41 5.29607e-41 5.29607e-41 5.29607e-41 5.29607e-41 5.29607e-41 5.29607e-41 5.29607e-41 5.29607e-41 5.29607e-41 5.29607e-41 5.29607e-41 5.29607e-41 5.29607e-41 5.29607e-41 5.29607e-41 5.29607e-41 5.29607e-41 5.29607e-41 5.29607e-41 5.29607e-41 5.27197e-41 4.98007e-41 3.73166e-41 1.56441e-41 3.15993e-42 2.42425e-43 0 0 0 0 0 0 0 0 0 0 0 0 0 0 0 0 0 0 0 0 0 0 0 0 0 0 0 0 0 0 0 0 0 0 0 0 0 0 0 0 0 0 0 0 0 0 0 0 0 0 0 0 0 0 0 0 0 0 0 0 0 
0 0 0 0 0 0 0 0 0 0 0 0 0 0 0 0 0 0 0 0 0 0 0 0 0 0 0 0 0 0 0 0 0 0 0 0 0 0 0 0 0 0 0 0 0 0 0 0 0 0 0 0 0 0 0 0 0 0 0 0 2.96375e-42 5.06275e-41 3.5065e-40 1.26994e-39 2.65025e-39 3.56954e-39 3.86957e-39 3.91723e-39 3.92019e-39 3.92019e-39 3.92019e-39 3.92019e-39 3.92019e-39 3.92019e-39 3.92019e-39 3.92019e-39 3.92019e-39 3.92019e-39 3.92019e-39 3.92019e-39 3.92019e-39 3.92019e-39 3.92019e-39 3.92019e-39 3.92019e-39 3.92019e-39 3.92019e-39 3.92019e-39 3.92019e-39 3.92019e-39 3.92019e-39 3.92019e-39 3.92019e-39 3.92019e-39 3.92019e-39 3.92019e-39 3.92019e-39 3.92019e-39 3.92019e-39 3.92019e-39 3.92019e-39 3.92019e-39 3.92019e-39 3.92019e-39 3.92019e-39 3.92019e-39 3.92019e-39 3.92019e-39 3.92019e-39 3.92019e-39 3.92019e-39 3.92019e-39 3.92019e-39 3.92019e-39 3.92019e-39 3.92019e-39 3.92019e-39 3.92019e-39 3.92019e-39 3.92019e-39 3.92019e-39 3.92019e-39 3.92019e-39 3.92019e-39 3.92019e-39 3.92019e-39 3.92019e-39 3.92019e-39 3.92019e-39 3.92019e-39 3.92019e-39 3.92019e-39 3.92019e-39 3.92019e-39 3.92019e-39 3.92019e-39 3.92019e-39 3.92019e-39 3.92019e-39 3.92019e-39 3.92019e-39 3.92019e-39 3.92019e-39 3.92019e-39 3.92019e-39 3.92019e-39 3.92019e-39 3.92019e-39 3.92019e-39 3.92019e-39 3.92019e-39 3.92019e-39 3.92019e-39 3.92019e-39 3.92019e-39 3.92019e-39 3.92019e-39 3.92019e-39 3.92019e-39 3.92019e-39 3.92019e-39 3.92019e-39 3.92019e-39 3.92019e-39 3.92019e-39 3.92019e-39 3.92019e-39 3.92019e-39 3.92019e-39 3.92019e-39 3.92019e-39 3.92019e-39 3.92019e-39 3.92019e-39 3.92019e-39 3.92019e-39 3.92019e-39 3.92019e-39 3.92019e-39 3.92019e-39 3.92019e-39 3.92019e-39 3.92019e-39 3.92019e-39 3.92019e-39 3.92019e-39 3.92019e-39 3.92019e-39 3.91723e-39 3.86957e-39 3.56954e-39 2.65025e-39 1.26994e-39 3.5065e-40 5.06275e-41 2.96375e-42 0 0 0 0 0 0 0 0 0 0 0 0 0 0 0 0 0 0 0 0 0 0 0 0 0 0 0 0 0 0 0 0 0 0 0 0 0 0 0 0 0 0 0 0 0 0 0 0 0 0 0 0 0 0 0 0 0 0 0 0 
0 0 0 0 0 0 0 0 0 0 0 0 0 0 0 0 0 0 0 0 0 0 0 0 0 0 0 0 0 0 0 0 0 0 0 0 0 0 0 0 0 0 0 0 0 0 0 0 0 0 0 0 0 0 0 0 0 0 0 2.8452e-41 6.00468e-40 5.35464e-39 2.62827e-38 7.81683e-38 1.49564e-37 2.01449e-37 2.22377e-37 2.27131e-37 2.27703e-37 2.27732e-37 2.27732e-37 2.27732e-37 2.27732e-37 2.27732e-37 2.27732e-37 2.27732e-37 2.27732e-37 2.27732e-37 2.27732e-37 2.27732e-37 2.27732e-37 2.27732e-37 2.27732e-37 2.27732e-37 2.27732e-37 2.27732e-37 2.27732e-37 2.27732e-37 2.27732e-37 2.27732e-37 2.27732e-37 2.27732e-37 2.27732e-37 2.27732e-37 2.27732e-37 2.27732e-37 2.27732e-37 2.27732e-37 2.27732e-37 2.27732e-37 2.27732e-37 2.27732e-37 2.27732e-37 2.27732e-37 2.27732e-37 2.27732e-37 2.27732e-37 2.27732e-37 2.27732e-37 2.27732e-37 2.27732e-37 2.27732e-37 2.27732e-37 2.27732e-37 2.27732e-37 2.27732e-37 2.27732e-37 2.27732e-37 2.27732e-37 2.27732e-37 2.27732e-37 2.27732e-37 2.27732e-37 2.27732e-37 2.27732e-37 2.27732e-37 2.27732e-37 2.27732e-37 2.27732e-37 2.27732e-37 2.27732e-37 2.27732e-37 2.27732e-37 2.27732e-37 2.27732e-37 2.27732e-37 2.27732e-37 2.27732e-37 2.27732e-37 2.27732e-37 2.27732e-37 2.27732e-37 2.27732e-37 2.27732e-37 2.27732e-37 2.27732e-37 2.27732e-37 2.27732e-37 2.27732e-37 2.27732e-37 2.27732e-37 2.27732e-37 2.27732e-37 2.27732e-37 2.27732e-37 2.27732e-37 2.27732e-37 2.27732e-37 2.27732e-37 2.27732e-37 2.27732e-37 2.27732e-37 2.27732e-37 2.27732e-37 2.27732e-37 2.27732e-37 2.27732e-37 2.27732e-37 2.27732e-37 2.27732e-37 2.27732e-37 2.27732e-37 2.27732e-37 2.27732e-37 2.27732e-37 2.27732e-37 2.27732e-37 2.27732e-37 2.27732e-37 2.27732e-37 2.27732e-37 2.27732e-37 2.27732e-37 2.27732e-37 2.27732e-37 2.27732e-37 2.27732e-37 2.27703e-37 2.27131e-37 2.22377e-37 2.01449e-37 1.49564e-37 7.81683e-38 2.62827e-38 5.35464e-39 6.00468e-40 2.8452e-41 0 0 0 0 0 0 0 0 0 0 0 0 0 0 0 0 0 0 0 0 0 0 0 0 0 0 0 0 0 0 0 0 0 0 0 0 0 0 0 0 0 0 0 0 0 0 0 0 0 0 0 0 0 0 0 0 0 0 0 
0 0 0 0 0 0 0 0 0 0 0 0 0 0 0 0 0 0 0 0 0 0 0 0 0 0 0 0 0 0 0 0 0 0 0 0 0 0 0 0 0 0 0 0 0 0 0 0 0 0 0 0 0 0 0 0 0 0 2.22878e-40 5.6004e-39 6.11426e-38 3.80202e-37 1.48853e-36 3.86251e-36 6.94882e-36 9.3228e-36 1.04311e-35 1.07502e-35 1.08057e-35 1.08111e-35 1.08113e-35 1.08113e-35 1.08113e-35 1.08113e-35 1.08113e-35 1.08113e-35 1.08113e-35 1.08113e-35 1.08113e-35 1.08113e-35 1.08113e-35 1.08113e-35 1.08113e-35 1.08113e-35 1.08113e-35 1.08113e-35 1.08113e-35 1.08113e-35 1.08113e-35 1.08113e-35 1.08113e-35 1.08113e-35 1.08113e-35 1.08113e-35 1.08113e-35 1.08113e-35 1.08113e-35 1.08113e-35 1.08113e-35 1.08113e-35 1.08113e-35 1.08113e-35 1.08113e-35 1.08113e-35 1.08113e-35 1.08113e-35 1.08113e-35 1.08113e-35 1.08113e-35 1.08113e-35 1.08113e-35 1.08113e-35 1.08113e-35 1.08113e-35 1.08113e-35 1.08113e-35 1.08113e-35 1.08113e-35 1.08113e-35 1.08113e-35 1.08113e-35 1.08113e-35 1.08113e-35 1.08113e-35 1.08113e-35 1.08113e-35 1.08113e-35 1.08113e-35 1.08113e-35 1.08113e-35 1.08113e-35 1.08113e-35 1.08113e-35 1.08113e-35 1.08113e-35 1.08113e-35 1.08113e-35 1.08113e-35 1.08113e-35 1.08113e-35 1.08113e-35 1.08113e-35 1.08113e-35 1.08113e-35 1.08113e-35 1.08113e-35 1.08113e-35 1.08113e-35 1.08113e-35 1.08113e-35 1.08113e-35 1.08113e-35 1.08113e-35 1.08113e-35 1.08113e-35 1.08113e-35 1.08113e-35 1.08113e-35 1.08113e-35 1.08113e-35 1.08113e-35 1.08113e-35 1.08113e-35 1.08113e-35 1.08113e-35 1.08113e-35 1.08113e-35 1.08113e-35 1.08113e-35 1.08113e-35 1.08113e-35 1.08113e-35 1.08113e-35 1.08113e-35 1.08113e-35 1.08113e-35 1.08113e-35 1.08113e-35 1.08113e-35 1.08113e-35 1.08113e-35 1.08113e-35 1.08113e-35 1.08113e-35 1.08113e-35 1.08113e-35 1.08111e-35 1.08057e-35 1.07502e-35 1.04311e-35 9.3228e-36 6.94882e-36 3.86251e-36 1.48853e-36 3.80202e-37 6.11426e-38 5.6004e-39 2.22878e-40 0 0 0 0 0 0 0 0 0 0 0 0 0 0 0 0 0 0 0 0 0 0 0 0 0 0 0 0 0 0 0 0 0 0 0 0 0 0 0 0 0 0 0 0 0 0 0 0 0 0 0 0 0 0 0 0 0 0 
0 0 0 0 0 0 0 0 0 0 0 0 0 0 0 0 0 0 0 0 0 0 0 0 0 0 0 0 0 0 0 0 0 0 0 0 0 0 0 0 0 0 0 0 0 0 0 0 0 0 0 0 0 0 0 0 0 1.46463e-39 4.2697e-38 5.51779e-37 4.16088e-36 2.03153e-35 6.76233e-35 1.58714e-34 2.72559e-34 3.6365e-34 4.10958e-34 4.27112e-34 4.30721e-34 4.3123e-34 4.31271e-34 4.31273e-34 4.31273e-34 4.31273e-34 4.31273e-34 4.31273e-34 4.31273e-34 4.31273e-34 4.31273e-34 4.31273e-34 4.31273e-34 4.31273e-34 4.31273e-34 4.31273e-34 4.31273e-34 4.31273e-34 4.31273e-34 4.31273e-34 4.31273e-34 4.31273e-34 4.31273e-34 4.31273e-34 4.31273e-34 4.31273e-34 4.31273e-34 4.31273e-34 4.31273e-34 4.31273e-34 4.31273e-34 4.31273e-34 4.31273e-34 4.31273e-34 4.31273e-34 4.31273e-34 4.31273e-34 4.31273e-34 4.31273e-34 4.31273e-34 4.31273e-34 4.31273e-34 4.31273e-34 4.31273e-34 4.31273e-34 4.31273e-34 4.31273e-34 4.31273e-34 4.31273e-34 4.31273e-34 4.31273e-34 4.31273e-34 4.31273e-34 4.31273e-34 4.31273e-34 4.31273e-34 4.31273e-34 4.31273e-34 4.31273e-34 4.31273e-34 4.31273e-34 4.31273e-34 4.31273e-34 4.31273e-34 4.31273e-34 4.31273e-34 4.31273e-34 4.31273e-34 4.31273e-34 4.31273e-34 4.31273e-34 4.31273e-34 4.31273e-34 4.31273e-34 4.31273e-34 4.31273e-34 4.31273e-34 4.31273e-34 4.31273e-34 4.31273e-34 4.31273e-34 4.31273e-34 4.31273e-34 4.31273e-34 4.31273e-34 4.31273e-34 4.31273e-34 4.31273e-34 4.31273e-34 4.31273e-34 4.31273e-34 4.31273e-34 4.31273e-34 4.31273e-34 4.31273e-34 4.31273e-34 4.31273e-34 4.31273e-34 4.31273e-34 4.31273e-34 4.31273e-34 4.31273e-34 4.31273e-34 4.31273e-34 4.31273e-34 4.31273e-34 4.31273e-34 4.31273e-34 4.31273e-34 4.31273e-34 4.31273e-34 4.31273e-34 4.31273e-34 4.31273e-34 4.31273e-34 4.31273e-34 4.31273e-34 4.31271e-34 4.3123e-34 4.30721e-34 4.27112e-34 4.10958e-34 3.6365e-34 2.72559e-34 1.58714e-34 6.76233e-35 2.03153e-35 4.16088e-36 5.51779e-37 4.2697e-38 1.46463e-39 0 0 0 0 0 0 0 0 0 0 0 0 0 0 0 0 0 0 0 0 0 0 0 0 0 0 0 0 0 0 0 0 0 0 0 0 0 0 0 0 0 0 0 0 0 0 0 0 0 0 0 0 0 0 0 0 0 
0 0 0 0 0 0 0 0 0 0 0 0 0 0 0 0 0 0 0 0 0 0 0 0 0 0 0 0 0 0 0 0 0 0 0 0 0 0 0 0 0 0 0 0 0 0 0 0 0 0 0 0 0 0 0 0 8.23852e-39 2.73336e-37 4.08159e-36 3.6209e-35 2.12354e-34 8.68515e-34 2.55674e-33 5.5553e-33 9.1962e-33 1.21948e-32 1.3883e-32 1.45391e-32 1.47153e-32 1.47474e-32 1.47512e-32 1.47515e-32 1.47515e-32 1.47515e-32 1.47515e-32 1.47515e-32 1.47515e-32 1.47515e-32 1.47515e-32 1.47515e-32 1.47515e-32 1.47515e-32 1.47515e-32 1.47515e-32 1.47515e-32 1.47515e-32 1.47515e-32 1.47515e-32 1.47515e-32 1.47515e-32 1.47515e-32 1.47515e-32 1.47515e-32 1.47515e-32 1.47515e-32 1.47515e-32 1.47515e-32 1.47515e-32 1.47515e-32 1.47515e-32 1.47515e-32 1.47515e-32 1.47515e-32 1.47515e-32 1.47515e-32 1.47515e-32 1.47515e-32 1.47515e-32 1.47515e-32 1.47515e-32 1.47515e-32 1.47515e-32 1.47515e-32 1.47515e-32 1.47515e-32 1.47515e-32 1.47515e-32 1.47515e-32 1.47515e-32 1.47515e-32 1.47515e-32 1.47515e-32 1.47515e-32 1.47515e-32 1.47515e-32 1.47515e-32 1.47515e-32 1.47515e-32 1.47515e-32 1.47515e-32 1.47515e-32 1.47515e-32 1.47515e-32 1.47515e-32 1.47515e-32 1.47515e-32 1.47515e-32 1.47515e-32 1.47515e-32 1.47515e-32 1.47515e-32 1.47515e-32 1.47515e-32 1.47515e-32 1.47515e-32 1.47515e-32 1.47515e-32 1.47515e-32 1.47515e-32 1.47515e-32 1.47515e-32 1.47515e-32 1.47515e-32 1.47515e-32 1.47515e-32 1.47515e-32 1.47515e-32 1.47515e-32 1.47515e-32 1.47515e-32 1.47515e-32 1.47515e-32 1.47515e-32 1.47515e-32 1.47515e-32 1.47515e-32 1.47515e-32 1.47515e-32 1.47515e-32 1.47515e-32 1.47515e-32 1.47515e-32 1.47515e-32 1.47515e-32 1.47515e-32 1.47515e-32 1.47515e-32 1.47515e-32 1.47515e-32 1.47515e-32 1.47515e-32 1.47515e-32 1.47515e-32 1.47515e-32 1.47515e-32 1.47512e-32 1.47474e-32 1.47153e-32 1.45391e-32 1.3883e-32 1.21948e-32 9.1962e-33 5.5553e-33 2.55674e-33 8.68515e-34 2.12354e-34 3.6209e-35 4.08159e-36 2.73336e-37 8.23852e-39 0 0 0 0 0 0 0 0 0 0 0 0 0 0 0 0 0 0 0 0 0 0 0 0 0 0 0 0 0 0 0 0 0 0 0 0 0 0 0 0 0 0 0 0 0 0 0 0 0 0 0 0 0 0 0 0 
0 0 0 0 0 0 0 0 0 0 0 0 0 0 0 0 0 0 0 0 0 0 0 0 0 0 0 0 0 0 0 0 0 0 0 0 0 0 0 0 0 0 0 0 0 0 0 0 0 0 0 0 0 0 0 4.02772e-38 1.4985e-36 2.53917e-35 2.59175e-34 1.77697e-33 8.64894e-33 3.08573e-32 8.24757e-32 1.68553e-31 2.7079e-31 3.56867e-31 4.08486e-31 4.30694e-31 4.37566e-31 4.39084e-31 4.39318e-31 4.39342e-31 4.39343e-31 4.39343e-31 4.39343e-31 4.39343e-31 4.39343e-31 4.39343e-31 4.39343e-31 4.39343e-31 4.39343e-31 4.39343e-31 4.39343e-31 4.39343e-31 4.39343e-31 4.39343e-31 4.39343e-31 4.39343e-31 4.39343e-31 4.39343e-31 4.39343e-31 4.39343e-31 4.39343e-31 4.39343e-31 4.39343e-31 4.39343e-31 4.39343e-31 4.39343e-31 4.39343e-31 4.39343e-31 4.39343e-31 4.39343e-31 4.39343e-31 4.39343e-31 4.39343e-31 4.39343e-31 4.39343e-31 4.39343e-31 4.39343e-31 4.39343e-31 4.39343e-31 4.39343e-31 4.39343e-31 4.39343e-31 4.39343e-31 4.39343e-31 4.39343e-31 4.39343e-31 4.39343e-31 4.39343e-31 4.39343e-31 4.39343e-31 4.39343e-31 4.39343e-31 4.39343e-31 4.39343e-31 4.39343e-31 4.39343e-31 4.39343e-31 4.39343e-31 4.39343e-31 4.39343e-31 4.39343e-31 4.39343e-31 4.39343e-31 4.39343e-31 4.39343e-31 4.39343e-31 4.39343e-31 4.39343e-31 4.39343e-31 4.39343e-31 4.39343e-31 4.39343e-31 4.39343e-31 4.39343e-31 4.39343e-31 4.39343e-31 4.39343e-31 4.39343e-31 4.39343e-31 4.39343e-31 4.39343e-31 4.39343e-31 4.39343e-31 4.39343e-31 4.39343e-31 4.39343e-31 4.39343e-31 4.39343e-31 4.39343e-31 4.39343e-31 4.39343e-31 4.39343e-31 4.39343e-31 4.39343e-31 4.39343e-31 4.39343e-31 4.39343e-31 4.39343e-31 4.39343e-31 4.39343e-31 4.39343e-31 4.39343e-31 4.39343e-31 4.39343e-31 4.39343e-31 4.39343e-31 4.39343e-31 4.39343e-31 4.39343e-31 4.39343e-31 4.39343e-31 4.39343e-31 4.39342e-31 4.39318e-31 4.39084e-31 4.37566e-31 4.30694e-31 4.08486e-31 3.56867e-31 2.7079e-31 1.68553e-31 8.24757e-32 3.08573e-32 8.64894e-33 1.77697e-33 2.59175e-34 2.53917e-35 1.4985e-36 4.02772e-38 0 0 0 0 0 0 0 0 0 0 0 0 0 0 0 0 0 0 0 0 0 0 0 0 0 0 0 0 0 0 0 0 0 0 0 0 0 0 0 0 0 0 0 0 0 0 0 0 0 0 0 0 0 0 0 
0 0 0 0 0 0 0 0 0 0 0 0 0 0 0 0 0 0 0 0 0 0 0 0 0 0 0 0 0 0 0 0 0 0 0 0 0 0 0 0 0 0 0 0 0 0 0 0 0 0 0 0 0 0 1.73192e-37 7.14115e-36 1.35392e-34 1.56335e-33 1.22788e-32 6.94346e-32 2.92194e-31 9.34735e-31 2.31082e-30 4.49243e-30 7.03885e-30 9.22046e-30 1.05965e-29 1.12391e-29 1.14618e-29 1.1519e-29 1.15297e-29 1.15311e-29 1.15313e-29 1.15313e-29 1.15313e-29 1.15313e-29 1.15313e-29 1.15313e-29 1.15313e-29 1.15313e-29 1.15313e-29 1.15313e-29 1.15313e-29 1.15313e-29 1.15313e-29 1.15313e-29 1.15313e-29 1.15313e-29 1.15313e-29 1.15313e-29 1.15313e-29 1.15313e-29 1.15313e-29 1.15313e-29 1.15313e-29 1.15313e-29 1.15313e-29 1.15313e-29 1.15313e-29 1.15313e-29 1.15313e-29 1.15313e-29 1.15313e-29 1.15313e-29 1.15313e-29 1.15313e-29 1.15313e-29 1.15313e-29 1.15313e-29 1.15313e-29 1.15313e-29 1.15313e-29 1.15313e-29 1.15313e-29 1.15313e-29 1.15313e-29 1.15313e-29 1.15313e-29 1.15313e-29 1.15313e-29 1.15313e-29 1.15313e-29 1.15313e-29 1.15313e-29 1.15313e-29 1.15313e-29 1.15313e-29 1.15313e-29 1.15313e-29 1.15313e-29 1.15313e-29 1.15313e-29 1.15313e-29 1.15313e-29 1.15313e-29 1.15313e-29 1.15313e-29 1.15313e-29 1.15313e-29 1.15313e-29 1.15313e-29 1.15313e-29 1.15313e-29 1.15313e-29 1.15313e-29 1.15313e-29 1.15313e-29 1.15313e-29 1.15313e-29 1.15313e-29 1.15313e-29 1.15313e-29 1.15313e-29 1.15313e-29 1.15313e-29 1.15313e-29 1.15313e-29 1.15313e-29 1.15313e-29 1.15313e-29 1.15313e-29 1.15313e-29 1.15313e-29 1.15313e-29 1.15313e-29 1.15313e-29 1.15313e-29 1.15313e-29 1.15313e-29 1.15313e-29 1.15313e-29 1.15313e-29 1.15313e-29 1.15313e-29 1.15313e-29 1.15313e-29 1.15313e-29 1.15313e-29 1.15313e-29 1.15313e-29 1.15313e-29 1.15313e-29 1.15313e-29 1.15313e-29 1.15311e-29 1.15297e-29 1.1519e-29 1.14618e-29 1.12391e-29 1.05965e-29 9.22046e-30 7.03885e-30 4.49243e-30 2.31082e-30 9.34735e-31 2.92194e-31 6.94346e-32 1.22788e-32 1.56335e-33 1.35392e-34 7.14115e-36 1.73192e-37 0 0 0 0 0 0 0 0 0 0 0 0 0 0 0 0 0 0 0 0 0 0 0 0 0 0 0 0 0 0 0 0 0 0 0 0 0 0 0 0 0 0 0 0 0 0 0 0 0 0 0 0 0 0 
0 0 0 0 0 0 0 0 0 0 0 0 0 0 0 0 0 0 0 0 0 0 0 0 0 0 0 0 0 0 0 0 0 0 0 0 0 0 0 0 0 0 0 0 0 0 0 0 0 0 0 0 0 6.61279e-37 2.99307e-35 6.2783e-34 8.09249e-33 7.16736e-32 4.62256e-31 2.2463e-30 8.40506e-30 2.45893e-29 5.69944e-29 1.06287e-28 1.63017e-28 2.1231e-28 2.44715e-28 2.60899e-28 2.67058e-28 2.68842e-28 2.69233e-28 2.69296e-28 2.69304e-28 2.69304e-28 2.69304e-28 2.69304e-28 2.69304e-28 2.69304e-28 2.69304e-28 2.69304e-28 2.69304e-28 2.69304e-28 2.69304e-28 2.69304e-28 2.69304e-28 2.69304e-28 2.69304e-28 2.69304e-28 2.69304e-28 2.69304e-28 2.69304e-28 2.69304e-28 2.69304e-28 2.69304e-28 2.69304e-28 2.69304e-28 2.69304e-28 2.69304e-28 2.69304e-28 2.69304e-28 2.69304e-28 2.69304e-28 2.69304e-28 2.69304e-28 2.69304e-28 2.69304e-28 2.69304e-28 2.69304e-28 2.69304e-28 2.69304e-28 2.69304e-28 2.69304e-28 2.69304e-28 2.69304e-28 2.69304e-28 2.69304e-28 2.69304e-28 2.69304e-28 2.69304e-28 2.69304e-28 2.69304e-28 2.69304e-28 2.69304e-28 2.69304e-28 2.69304e-28 2.69304e-28 2.69304e-28 2.69304e-28 2.69304e-28 2.69304e-28 2.69304e-28 2.69304e-28 2.69304e-28 2.69304e-28 2.69304e-28 2.69304e-28 2.69304e-28 2.69304e-28 2.69304e-28 2.69304e-28 2.69304e-28 2.69304e-28 2.69304e-28 2.69304e-28 2.69304e-28 2.69304e-28 2.69304e-28 2.69304e-28 2.69304e-28 2.69304e-28 2.69304e-28 2.69304e-28 2.69304e-28 2.69304e-28 2.69304e-28 2.69304e-28 2.69304e-28 2.69304e-28 2.69304e-28 2.69304e-28 2.69304e-28 2.69304e-28 2.69304e-28 2.69304e-28 2.69304e-28 2.69304e-28 2.69304e-28 2.69304e-28 2.69304e-28 2.69304e-28 2.69304e-28 2.69304e-28 2.69304e-28 2.69304e-28 2.69304e-28 2.69304e-28 2.69304e-28 2.69304e-28 2.69304e-28 2.69304e-28 2.69304e-28 2.69304e-28 2.69304e-28 2.69304e-28 2.69296e-28 2.69233e-28 2.68842e-28 2.67058e-28 2.60899e-28 2.44715e-28 2.1231e-28 1.63017e-28 1.06287e-28 5.69944e-29 2.45893e-29 8.40506e-30 2.2463e-30 4.62256e-31 7.16736e-32 8.09249e-33 6.2783e-34 2.99307e-35 6.61279e-37 0 0 0 0 0 0 0 0 0 0 0 0 0 0 0 0 0 0 0 0 0 0 0 0 0 0 0 0 0 0 0 0 0 0 0 0 0 0 0 0 0 0 0 0 0 0 0 0 0 0 0 0 0 
0 0 0 0 0 0 0 0 0 0 0 0 0 0 0 0 0 0 0 0 0 0 0 0 0 0 0 0 0 0 0 0 0 0 0 0 0 0 0 0 0 0 0 0 0 0 0 0 0 0 0 0 2.25937e-36 1.1137e-34 2.56092e-33 3.64546e-32 3.59552e-31 2.6065e-30 1.43833e-29 6.17832e-29 2.09759e-28 5.69503e-28 1.25041e-27 2.25112e-27 3.38942e-27 4.39013e-27 5.07104e-27 5.43078e-27 5.57876e-27 5.62616e-27 5.63793e-27 5.64018e-27 5.6405e-27 5.64054e-27 5.64054e-27 5.64054e-27 5.64054e-27 5.64054e-27 5.64054e-27 5.64054e-27 5.64054e-27 5.64054e-27 5.64054e-27 5.64054e-27 5.64054e-27 5.64054e-27 5.64054e-27 5.64054e-27 5.64054e-27 5.64054e-27 5.64054e-27 5.64054e-27 5.64054e-27 5.64054e-27 5.64054e-27 5.64054e-27 5.64054e-27 5.64054e-27 5.64054e-27 5.64054e-27 5.64054e-27 5.64054e-27 5.64054e-27 5.64054e-27 5.64054e-27 5.64054e-27 5.64054e-27 5.64054e-27 5.64054e-27 5.64054e-27 5.64054e-27 5.64054e-27 5.64054e-27 5.64054e-27 5.64054e-27 5.64054e-27 5.64054e-27 5.64054e-27 5.64054e-27 5.64054e-27 5.64054e-27 5.64054e-27 5.64054e-27 5.64054e-27 5.64054e-27 5.64054e-27 5.64054e-27 5.64054e-27 5.64054e-27 5.64054e-27 5.64054e-27 5.64054e-27 5.64054e-27 5.64054e-27 5.64054e-27 5.64054e-27 5.64054e-27 5.64054e-27 5.64054e-27 5.64054e-27 5.64054e-27 5.64054e-27 5.64054e-27 5.64054e-27 5.64054e-27 5.64054e-27 5.64054e-27 5.64054e-27 5.64054e-27 5.64054e-27 5.64054e-27 5.64054e-27 5.64054e-27 5.64054e-27 5.64054e-27 5.64054e-27 5.64054e-27 5.64054e-27 5.64054e-27 5.64054e-27 5.64054e-27 5.64054e-27 5.64054e-27 5.64054e-27 5.64054e-27 5.64054e-27 5.64054e-27 5.64054e-27 5.64054e-27 5.64054e-27 5.64054e-27 5.64054e-27 5.64054e-27 5.64054e-27 5.64054e-27 5.64054e-27 5.64054e-27 5.64054e-27 5.64054e-27 5.64054e-27 5.64054e-27 5.64054e-27 5.64054e-27 5.6405e-27 5.64018e-27 5.63793e-27 5.62616e-27 5.57876e-27 5.43078e-27 5.07104e-27 4.39013e-27 3.38942e-27 2.25112e-27 1.25041e-27 5.69503e-28 2.09759e-28 6.17832e-29 1.43833e-29 2.6065e-30 3.59552e-31 3.64546e-32 2.56092e-33 1.1137e-34 2.25937e-36 0 0 0 0 0 0 0 0 0 0 0 0 0 0 0 0 0 0 0 0 0 0 0 0 0 0 0 0 0 0 0 0 0 0 0 0 0 0 0 0 0 0 0 0 0 0 0 0 0 0 0 0 