<?xml version="1.0"?>
<VTKFile type="ImageData" version="0.1" byte_order="LittleEndian">
  <ImageData WholeExtent="0 255 0 255 0 0" Origin="0 0 0" Spacing="1 1 1">
  <Piece Extent="0 255 0 255 0 0">
    <PointData>
      <DataArray type="Float32" Name="scalar_data" format="ascii" >0 0 0 0 0 0 0 0 0 0 0 0 0 0 0 0 0 0 0 0 0 0 0 0 0 0 0 0 0 0 0 0 0 0 0 0 0 0 0 0 0 0 0 0 0 0 0 0 0 0 0 0 0 0 0 0 0 0 0 0 0 0 0 0 0 0 0 0 0 0 0 0 0 0 0 0 0 0 0 0 0 0 0 0 0 0 0 0 0 0 0 0 0 0 0 0 0 0 0 0 0 0 0 0 0 0 0 0 0 0 0 0 0 0 0 0 0 0 0 0 0 0 0 0 0 0 0 0 0 0 0 0 0 0 0 0 0 0 0 0 0 0 0 0 0 0 0 0 0 0 0 0 0 0 0 0 0 0 0 0 0 0 0 0 0 0 0 0 0 0 0 0 0 0 0 0 0 0 0 0 0 0 0 0 0 0 0 0 0 0 0 0 0 0 0 0 0 0 0 0 0 0 0 0 0 0 0 0 0 0 0 0 0 0 0 0 0 0 0 0 0 0 0 0 0 0 0 0 0 0 0 0 0 0 0 0 0 0 0 0 0 0 0 0 0 0 0 0 0 0 0 0 0 0 0 0 
0 1.37785e-11 2.87685e-11 4.62639e-11 6.77272e-11 9.4883e-11 1.29824e-10 1.75128e-10 2.34005e-10 3.10453e-10 4.09457e-10 5.37213e-10 7.01391e-10 9.11444e-10 1.17896e-09 1.51808e-09 1.94595e-09 2.48322e-09 3.15468e-09 3.98985e-09 5.0237e-09 6.29738e-09 7.85906e-09 9.76473e-09 1.20791e-08 1.48763e-08 1.8241e-08 2.22691e-08 2.70682e-08 3.27587e-08 3.94739e-08 4.73604e-08 5.65784e-08 6.7301e-08 7.97143e-08 9.40161e-08 1.10415e-07 1.29129e-07 1.50381e-07 1.74402e-07 2.01422e-07 2.3167e-07 2.65369e-07 3.02734e-07 3.43965e-07 3.89244e-07 4.3873e-07 4.92556e-07 5.50821e-07 6.1359e-07 6.80887e-07 7.52693e-07 8.28943e-07 9.09524e-07 9.94274e-07 1.08298e-06 1.17539e-06 1.27118e-06 1.37002e-06 1.4715e-06 1.57519e-06 1.68065e-06 1.78738e-06 1.89488e-06 2.00265e-06 2.11015e-06 2.21688e-06 2.32234e-06 2.42604e-06 2.52752e-06 2.62635e-06 2.72215e-06 2.81455e-06 2.90326e-06 2.98801e-06 3.06859e-06 3.14484e-06 3.21664e-06 3.28394e-06 3.34671e-06 3.40498e-06 3.4588e-06 3.50829e-06 3.55357e-06 3.5948e-06 3.63216e-06 3.66586e-06 3.69611e-06 3.72313e-06 3.74715e-06 3.7684e-06 3.78712e-06 3.80352e-06 3.81782e-06 3.83023e-06 3.84095e-06 3.85017e-06 3.85806e-06 3.86477e-06 3.87046e-06 3.87526e-06 3.87929e-06 3.88266e-06 3.88545e-06 3.88777e-06 3.88967e-06 3.89123e-06 3.89251e-06 3.89354e-06 3.89438e-06 3.89505e-06 3.89559e-06 3.89601e-06 3.89635e-06 3.89662e-06 3.89683e-06 3.89699e-06 3.89712e-06 3.89722e-06 3.8973e-06 3.89735e-06 3.8974e-06 3.89743e-06 3.89745e-06 3.89747e-06 3.89748e-06 3.89749e-06 3.8975e-06 3.8975e-06 3.89749e-06 3.89748e-06 3.89747e-06 3.89745e-06 3.89743e-06 3.8974e-06 3.89735e-06 3.8973e-06 3.89722e-06 3.89712e-06 3.89699e-06 3.89683e-06 3.89662e-06 3.89635e-06 3.89601e-06 3.89559e-06 3.89505e-06 3.89438e-06 3.89354e-06 3.89251e-06 3.89123e-06 3.88967e-06 3.88777e-06 3.88545e-06 3.88266e-06 3.87929e-06 3.87526e-06 3.87046e-06 3.86477e-06 3.85806e-06 3.85017e-06 3.84095e-06 3.83023e-06 3.81782e-06 3.80352e-06 3.78712e-06 3.7684e-06 3.74715e-06 3.72313e-06 3.69611e-06 3.66586e-06 3.63216e-06 3.5948e-06 3.55357e-06 3.50829e-06 3.4588e-06 3.40498e-06 3.34671e-06 3.28394e-06 3.21664e-06 3.14484e-06 3.06859e-06 2.98801e-06 2.90326e-06 2.81455e-06 2.72215e-06 2.62635e-06 2.52752e-06 2.42604e-06 2.32234e-06 2.21688e-06 2.11015e-06 2.00265e-06 1.89488e-06 1.78738e-06 1.68065e-06 1.57519e-06 1.4715e-06 1.37002e-06 1.27118e-06 1.17539e-06 1.08298e-06 9.94274e-07 9.09524e-07 8.28943e-07 7.52693e-07 6.80887e-07 6.1359e-07 5.50821e-07 4.92556e-07 4.3873e-07 3.89244e-07 3.43965e-07 3.02734e-07 2.65369e-07 2.3167e-07 2.01422e-07 1.74402e-07 1.50381e-07 1.29129e-07 1.10415e-07 9.40161e-08 7.97143e-08 6.7301e-08 5.65784e-08 4.73604e-08 3.94739e-08 3.27587e-08 2.70682e-08 2.22691e-08 1.8241e-08 1.48763e-08 1.20791e-08 9.76473e-09 7.85906e-09 6.29738e-09 5.0237e-09 3.98985e-09 3.15468e-09 2.48322e-09 1.94595e-09 1.51808e-09 1.17896e-09 9.11444e-10 7.01391e-10 5.37213e-10 4.09457e-10 3.10453e-10 2.34005e-10 1.75128e-10 1.29824e-10 9.4883e-11 6.77272e-11 4.62639e-11 2.87685e-11 1.37785e-11 0 
0 2.87685e-11 6.00659e-11 9.65933e-11 1.41404e-10 1.98096e-10 2.71039e-10 3.65615e-10 4.88519e-10 6.48099e-10 8.54757e-10 1.12142e-09 1.4641e-09 1.90253e-09 2.46088e-09 3.16866e-09 4.06164e-09 5.18293e-09 6.58424e-09 8.32717e-09 1.04847e-08 1.31426e-08 1.64015e-08 2.03781e-08 2.52074e-08 3.10443e-08 3.80652e-08 4.64701e-08 5.64837e-08 6.8357e-08 8.2368e-08 9.88228e-08 1.18055e-07 1.40427e-07 1.66325e-07 1.96163e-07 2.30376e-07 2.69417e-07 3.13755e-07 3.63868e-07 4.20237e-07 4.83338e-07 5.53639e-07 6.31587e-07 7.17598e-07 8.12053e-07 9.15284e-07 1.02757e-06 1.14911e-06 1.28005e-06 1.42043e-06 1.57021e-06 1.72927e-06 1.89735e-06 2.07414e-06 2.25918e-06 2.45192e-06 2.65175e-06 2.8579e-06 3.06958e-06 3.28589e-06 3.50586e-06 3.72849e-06 3.95273e-06 4.17751e-06 4.40175e-06 4.62438e-06 4.84435e-06 5.06065e-06 5.27233e-06 5.47849e-06 5.67831e-06 5.87106e-06 6.0561e-06 6.23288e-06 6.40097e-06 6.56002e-06 6.70981e-06 6.85019e-06 6.98112e-06 7.10267e-06 7.21495e-06 7.31818e-06 7.41264e-06 7.49865e-06 7.5766e-06 7.6469e-06 7.71e-06 7.76637e-06 7.81648e-06 7.86082e-06 7.89986e-06 7.93407e-06 7.96391e-06 7.98981e-06 8.01218e-06 8.03141e-06 8.04787e-06 8.06188e-06 8.07375e-06 8.08376e-06 8.09217e-06 8.09919e-06 8.10503e-06 8.10986e-06 8.11383e-06 8.11709e-06 8.11975e-06 8.12191e-06 8.12365e-06 8.12505e-06 8.12617e-06 8.12707e-06 8.12777e-06 8.12833e-06 8.12877e-06 8.12911e-06 8.12938e-06 8.12958e-06 8.12974e-06 8.12986e-06 8.12995e-06 8.13002e-06 8.13007e-06 8.13011e-06 8.13014e-06 8.13015e-06 8.13016e-06 8.13016e-06 8.13015e-06 8.13014e-06 8.13011e-06 8.13007e-06 8.13002e-06 8.12995e-06 8.12986e-06 8.12974e-06 8.12958e-06 8.12938e-06 8.12911e-06 8.12877e-06 8.12833e-06 8.12777e-06 8.12707e-06 8.12617e-06 8.12505e-06 8.12365e-06 8.12191e-06 8.11975e-06 8.11709e-06 8.11383e-06 8.10986e-06 8.10503e-06 8.09919e-06 8.09217e-06 8.08376e-06 8.07375e-06 8.06188e-06 8.04787e-06 8.03141e-06 8.01218e-06 7.98981e-06 7.96391e-06 7.93407e-06 7.89986e-06 7.86082e-06 7.81648e-06 7.76637e-06 7.71e-06 7.6469e-06 7.5766e-06 7.49865e-06 7.41264e-06 7.31818e-06 7.21495e-06 7.10267e-06 6.98112e-06 6.85019e-06 6.70981e-06 6.56002e-06 6.40097e-06 6.23288e-06 6.0561e-06 5.87106e-06 5.67831e-06 5.47849e-06 5.27233e-06 5.06065e-06 4.84435e-06 4.62438e-06 4.40175e-06 4.17751e-06 3.95273e-06 3.72849e-06 3.50586e-06 3.28589e-06 3.06958e-06 2.8579e-06 2.65175e-06 2.45192e-06 2.25918e-06 2.07414e-06 1.89735e-06 1.72927e-06 1.57021e-06 1.42043e-06 1.28005e-06 1.14911e-06 1.02757e-06 9.15284e-07 8.12053e-07 7.17598e-07 6.31587e-07 5.53639e-07 4.83338e-07 4.20237e-07 3.63868e-07 3.13755e-07 2.69417e-07 2.30376e-07 1.96163e-07 1.66325e-07 1.40427e-07 1.18055e-07 9.88228e-08 8.2368e-08 6.8357e-08 5.64837e-08 4.64701e-08 3.80652e-08 3.10443e-08 2.52074e-08 2.03781e-08 1.64015e-08 1.31426e-08 1.04847e-08 8.32717e-09 6.58424e-09 5.18293e-09 4.06164e-09 3.16866e-09 2.46088e-09 1.90253e-09 1.4641e-09 1.12142e-09 8.54757e-10 6.48099e-10 4.88519e-10 3.65615e-10 2.71039e-10 1.98096e-10 1.41404e-10 9.65933e-11 6.00659e-11 2.87685e-11 0 
0 4.62639e-11 9.65933e-11 1.5533e-10 2.27383e-10 3.18537e-10 4.35811e-10 5.87859e-10 7.85441e-10 1.04197e-09 1.37417e-09 1.80281e-09 2.35361e-09 3.05827e-09 3.95566e-09 5.09317e-09 6.52825e-09 8.3302e-09 1.05821e-08 1.33828e-08 1.68496e-08 2.11204e-08 2.63566e-08 3.27459e-08 4.05049e-08 4.98824e-08 6.11619e-08 7.46644e-08 9.07509e-08 1.09824e-07 1.32331e-07 1.58763e-07 1.89656e-07 2.2559e-07 2.67189e-07 3.15115e-07 3.70065e-07 4.3277e-07 5.03981e-07 5.84465e-07 6.74994e-07 7.76335e-07 8.89236e-07 1.01441e-06 1.15254e-06 1.30423e-06 1.47e-06 1.65031e-06 1.84549e-06 2.05575e-06 2.28117e-06 2.52169e-06 2.77709e-06 3.047e-06 3.33086e-06 3.62798e-06 3.93748e-06 4.25833e-06 4.58936e-06 4.92925e-06 5.27656e-06 5.62977e-06 5.98724e-06 6.34729e-06 6.70821e-06 7.06827e-06 7.42574e-06 7.77894e-06 8.12626e-06 8.46615e-06 8.79717e-06 9.11803e-06 9.42753e-06 9.72464e-06 1.00085e-05 1.02784e-05 1.05338e-05 1.07743e-05 1.09998e-05 1.121e-05 1.14052e-05 1.15855e-05 1.17513e-05 1.1903e-05 1.20411e-05 1.21663e-05 1.22792e-05 1.23805e-05 1.2471e-05 1.25515e-05 1.26227e-05 1.26854e-05 1.27404e-05 1.27883e-05 1.28299e-05 1.28659e-05 1.28967e-05 1.29232e-05 1.29457e-05 1.29648e-05 1.29808e-05 1.29943e-05 1.30056e-05 1.3015e-05 1.30228e-05 1.30292e-05 1.30344e-05 1.30387e-05 1.30421e-05 1.30449e-05 1.30472e-05 1.3049e-05 1.30504e-05 1.30516e-05 1.30524e-05 1.30532e-05 1.30537e-05 1.30541e-05 1.30545e-05 1.30547e-05 1.30549e-05 1.30551e-05 1.30552e-05 1.30552e-05 1.30553e-05 1.30553e-05 1.30554e-05 1.30554e-05 1.30554e-05 1.30554e-05 1.30553e-05 1.30553e-05 1.30552e-05 1.30552e-05 1.30551e-05 1.30549e-05 1.30547e-05 1.30545e-05 1.30541e-05 1.30537e-05 1.30532e-05 1.30524e-05 1.30516e-05 1.30504e-05 1.3049e-05 1.30472e-05 1.30449e-05 1.30421e-05 1.30387e-05 1.30344e-05 1.30292e-05 1.30228e-05 1.3015e-05 1.30056e-05 1.29943e-05 1.29808e-05 1.29648e-05 1.29457e-05 1.29232e-05 1.28967e-05 1.28659e-05 1.28299e-05 1.27883e-05 1.27404e-05 1.26854e-05 1.26227e-05 1.25515e-05 1.2471e-05 1.23805e-05 1.22792e-05 1.21663e-05 1.20411e-05 1.1903e-05 1.17513e-05 1.15855e-05 1.14052e-05 1.121e-05 1.09998e-05 1.07743e-05 1.05338e-05 1.02784e-05 1.00085e-05 9.72464e-06 9.42753e-06 9.11803e-06 8.79717e-06 8.46615e-06 8.12626e-06 7.77894e-06 7.42574e-06 7.06827e-06 6.70821e-06 6.34729e-06 5.98724e-06 5.62977e-06 5.27656e-06 4.92925e-06 4.58936e-06 4.25833e-06 3.93748e-06 3.62798e-06 3.33086e-06 3.047e-06 2.77709e-06 2.52169e-06 2.28117e-06 2.05575e-06 1.84549e-06 1.65031e-06 1.47e-06 1.30423e-06 1.15254e-06 1.01441e-06 8.89236e-07 7.76335e-07 6.74994e-07 5.84465e-07 5.03981e-07 4.3277e-07 3.70065e-07 3.15115e-07 2.67189e-07 2.2559e-07 1.89656e-07 1.58763e-07 1.32331e-07 1.09824e-07 9.07509e-08 7.46644e-08 6.11619e-08 4.98824e-08 4.05049e-08 3.27459e-08 2.63566e-08 2.11204e-08 1.68496e-08 1.33828e-08 1.05821e-08 8.3302e-09 6.52825e-09 5.09317e-09 3.95566e-09 3.05827e-09 2.35361e-09 1.80281e-09 1.37417e-09 1.04197e-09 7.85441e-10 5.87859e-10 4.35811e-10 3.18537e-10 2.27383e-10 1.5533e-10 9.65933e-11 4.62639e-11 0 
0 6.77271e-11 1.41404e-10 2.27383e-10 3.32845e-10 4.66257e-10 6.37886e-10 8.60392e-10 1.14951e-09 1.52487e-09 2.01092e-09 2.63804e-09 3.44384e-09 4.4747e-09 5.78742e-09 7.4513e-09 9.55037e-09 1.21859e-08 1.54794e-08 1.95754e-08 2.46452e-08 3.08906e-08 3.85475e-08 4.789e-08 5.9235e-08 7.2946e-08 8.94372e-08 1.09178e-07 1.32695e-07 1.60579e-07 1.93481e-07 2.32119e-07 2.77276e-07 3.29802e-07 3.90605e-07 4.60654e-07 5.40968e-07 6.32614e-07 7.36688e-07 8.54312e-07 9.86613e-07 1.13471e-06 1.2997e-06 1.48263e-06 1.68447e-06 1.90612e-06 2.14836e-06 2.41183e-06 2.69702e-06 3.00425e-06 3.33362e-06 3.68506e-06 4.05823e-06 4.45259e-06 4.86734e-06 5.30145e-06 5.75364e-06 6.22242e-06 6.70607e-06 7.20265e-06 7.71008e-06 8.22612e-06 8.74839e-06 9.27443e-06 9.80174e-06 1.03278e-05 1.08501e-05 1.13661e-05 1.18735e-05 1.23701e-05 1.28538e-05 1.33225e-05 1.37747e-05 1.42088e-05 1.46236e-05 1.50179e-05 1.53911e-05 1.57426e-05 1.60719e-05 1.63792e-05 1.66643e-05 1.69278e-05 1.71701e-05 1.73917e-05 1.75935e-05 1.77765e-05 1.79415e-05 1.80896e-05 1.82219e-05 1.83395e-05 1.84436e-05 1.85352e-05 1.86155e-05 1.86856e-05 1.87464e-05 1.87989e-05 1.88441e-05 1.88827e-05 1.89156e-05 1.89435e-05 1.8967e-05 1.89867e-05 1.90032e-05 1.90169e-05 1.90283e-05 1.90376e-05 1.90453e-05 1.90515e-05 1.90566e-05 1.90607e-05 1.9064e-05 1.90666e-05 1.90687e-05 1.90704e-05 1.90717e-05 1.90727e-05 1.90735e-05 1.90742e-05 1.90746e-05 1.9075e-05 1.90753e-05 1.90755e-05 1.90757e-05 1.90758e-05 1.90759e-05 1.90759e-05 1.9076e-05 1.9076e-05 1.9076e-05 1.9076e-05 1.90759e-05 1.90759e-05 1.90758e-05 1.90757e-05 1.90755e-05 1.90753e-05 1.9075e-05 1.90746e-05 1.90742e-05 1.90735e-05 1.90727e-05 1.90717e-05 1.90704e-05 1.90687e-05 1.90666e-05 1.9064e-05 1.90607e-05 1.90566e-05 1.90515e-05 1.90453e-05 1.90376e-05 1.90283e-05 1.90169e-05 1.90032e-05 1.89867e-05 1.8967e-05 1.89435e-05 1.89156e-05 1.88827e-05 1.88441e-05 1.87989e-05 1.87464e-05 1.86856e-05 1.86155e-05 1.85352e-05 1.84436e-05 1.83395e-05 1.82219e-05 1.80896e-05 1.79415e-05 1.77765e-05 1.75935e-05 1.73917e-05 1.71701e-05 1.69278e-05 1.66643e-05 1.63792e-05 1.60719e-05 1.57426e-05 1.53911e-05 1.50179e-05 1.46236e-05 1.42088e-05 1.37747e-05 1.33225e-05 1.28538e-05 1.23701e-05 1.18735e-05 1.13661e-05 1.08501e-05 1.03278e-05 9.80174e-06 9.27443e-06 8.74839e-06 8.22612e-06 7.71008e-06 7.20265e-06 6.70607e-06 6.22242e-06 5.75364e-06 5.30145e-06 4.86734e-06 4.45259e-06 4.05823e-06 3.68506e-06 3.33362e-06 3.00425e-06 2.69702e-06 2.41183e-06 2.14836e-06 1.90612e-06 1.68447e-06 1.48263e-06 1.2997e-06 1.13471e-06 9.86613e-07 8.54312e-07 7.36688e-07 6.32614e-07 5.40968e-07 4.60654e-07 3.90605e-07 3.29802e-07 2.77276e-07 2.32119e-07 1.93481e-07 1.60579e-07 1.32695e-07 1.09178e-07 8.94372e-08 7.2946e-08 5.9235e-08 4.789e-08 3.85475e-08 3.08906e-08 2.46452e-08 1.95754e-08 1.54794e-08 1.21859e-08 9.55037e-09 7.4513e-09 5.78742e-09 4.4747e-09 3.44384e-09 2.63804e-09 2.01092e-09 1.52487e-09 1.14951e-09 8.60392e-10 6.37886e-10 4.66257e-10 3.32845e-10 2.27383e-10 1.41404e-10 6.77271e-11 0 
0 9.4883e-11 1.98096e-10 3.18537e-10 4.66256e-10 6.53109e-10 8.93469e-10 1.20506e-09 1.6099e-09 2.13546e-09 2.81595e-09 3.6939e-09 4.82194e-09 6.26492e-09 8.10236e-09 1.04312e-08 1.3369e-08 1.70574e-08 2.16662e-08 2.73978e-08 3.44919e-08 4.32304e-08 5.39432e-08 6.70139e-08 8.28853e-08 1.02066e-07 1.25135e-07 1.52748e-07 1.85643e-07 2.24642e-07 2.7066e-07 3.24698e-07 3.87851e-07 4.61306e-07 5.46333e-07 6.44287e-07 7.56593e-07 8.84738e-07 1.03026e-06 1.19472e-06 1.3797e-06 1.58675e-06 1.81742e-06 2.07316e-06 2.35534e-06 2.6652e-06 3.00384e-06 3.37215e-06 3.77081e-06 4.20027e-06 4.66069e-06 5.15193e-06 5.67355e-06 6.22477e-06 6.8045e-06 7.41127e-06 8.04332e-06 8.69855e-06 9.37454e-06 1.00686e-05 1.07779e-05 1.14991e-05 1.22291e-05 1.29643e-05 1.37013e-05 1.44366e-05 1.51665e-05 1.58878e-05 1.6597e-05 1.72911e-05 1.79671e-05 1.86223e-05 1.92544e-05 1.98612e-05 2.04409e-05 2.09921e-05 2.15137e-05 2.2005e-05 2.24654e-05 2.28948e-05 2.32935e-05 2.36618e-05 2.40005e-05 2.43103e-05 2.45925e-05 2.48482e-05 2.50789e-05 2.5286e-05 2.54709e-05 2.56354e-05 2.57809e-05 2.59091e-05 2.60214e-05 2.61193e-05 2.62044e-05 2.62778e-05 2.6341e-05 2.6395e-05 2.6441e-05 2.648e-05 2.65129e-05 2.65405e-05 2.65636e-05 2.65828e-05 2.65986e-05 2.66117e-05 2.66224e-05 2.66312e-05 2.66383e-05 2.6644e-05 2.66486e-05 2.66523e-05 2.66552e-05 2.66576e-05 2.66594e-05 2.66608e-05 2.6662e-05 2.66628e-05 2.66635e-05 2.6664e-05 2.66644e-05 2.66647e-05 2.6665e-05 2.66651e-05 2.66652e-05 2.66653e-05 2.66654e-05 2.66654e-05 2.66654e-05 2.66654e-05 2.66653e-05 2.66652e-05 2.66651e-05 2.6665e-05 2.66647e-05 2.66644e-05 2.6664e-05 2.66635e-05 2.66628e-05 2.6662e-05 2.66608e-05 2.66594e-05 2.66576e-05 2.66552e-05 2.66523e-05 2.66486e-05 2.6644e-05 2.66383e-05 2.66312e-05 2.66224e-05 2.66117e-05 2.65986e-05 2.65828e-05 2.65636e-05 2.65405e-05 2.65129e-05 2.648e-05 2.6441e-05 2.6395e-05 2.6341e-05 2.62778e-05 2.62044e-05 2.61193e-05 2.60214e-05 2.59091e-05 2.57809e-05 2.56354e-05 2.54709e-05 2.5286e-05 2.50789e-05 2.48482e-05 2.45925e-05 2.43103e-05 2.40005e-05 2.36618e-05 2.32935e-05 2.28948e-05 2.24654e-05 2.2005e-05 2.15137e-05 2.09921e-05 2.04409e-05 1.98612e-05 1.92544e-05 1.86223e-05 1.79671e-05 1.72911e-05 1.6597e-05 1.58878e-05 1.51665e-05 1.44366e-05 1.37013e-05 1.29643e-05 1.22291e-05 1.14991e-05 1.07779e-05 1.00686e-05 9.37454e-06 8.69855e-06 8.04332e-06 7.41127e-06 6.8045e-06 6.22477e-06 5.67355e-06 5.15193e-06 4.66069e-06 4.20027e-06 3.77081e-06 3.37215e-06 3.00384e-06 2.6652e-06 2.35534e-06 2.07316e-06 1.81742e-06 1.58675e-06 1.3797e-06 1.19472e-06 1.03026e-06 8.84738e-07 7.56593e-07 6.44287e-07 5.46333e-07 4.61306e-07 3.87851e-07 3.24698e-07 2.7066e-07 2.24642e-07 1.85643e-07 1.52748e-07 1.25135e-07 1.02066e-07 8.28853e-08 6.70139e-08 5.39432e-08 4.32304e-08 3.44919e-08 2.73978e-08 2.16662e-08 1.70574e-08 1.3369e-08 1.04312e-08 8.10236e-09 6.26492e-09 4.82194e-09 3.6939e-09 2.81595e-09 2.13546e-09 1.6099e-09 1.20506e-09 8.93469e-10 6.53109e-10 4.66256e-10 3.18537e-10 1.98096e-10 9.4883e-11 0 
0 1.29824e-10 2.71039e-10 4.35811e-10 6.37886e-10 8.93469e-10 1.22221e-09 1.64834e-09 2.20195e-09 2.92059e-09 3.85102e-09 5.05134e-09 6.59347e-09 8.56603e-09 1.10776e-08 1.42607e-08 1.82759e-08 2.33167e-08 2.9615e-08 3.74472e-08 4.71406e-08 5.90804e-08 7.37169e-08 9.1574e-08 1.13256e-07 1.39458e-07 1.70969e-07 2.08687e-07 2.53616e-07 3.06882e-07 3.69729e-07 4.43527e-07 5.29771e-07 6.30078e-07 7.46184e-07 8.79935e-07 1.03328e-06 1.20824e-06 1.40692e-06 1.63146e-06 1.88399e-06 2.16666e-06 2.48156e-06 2.83067e-06 3.21586e-06 3.63884e-06 4.10108e-06 4.60381e-06 5.14797e-06 5.73414e-06 6.36256e-06 7.03304e-06 7.74497e-06 8.4973e-06 9.28851e-06 1.01166e-05 1.09792e-05 1.18735e-05 1.2796e-05 1.37433e-05 1.47112e-05 1.56955e-05 1.66917e-05 1.76951e-05 1.87009e-05 1.97043e-05 2.07005e-05 2.16849e-05 2.26528e-05 2.36e-05 2.45226e-05 2.54168e-05 2.62794e-05 2.71075e-05 2.78988e-05 2.86511e-05 2.9363e-05 3.00335e-05 3.06619e-05 3.12481e-05 3.17922e-05 3.2295e-05 3.27572e-05 3.31802e-05 3.35654e-05 3.39145e-05 3.42294e-05 3.45121e-05 3.47646e-05 3.49891e-05 3.51878e-05 3.53628e-05 3.55161e-05 3.56499e-05 3.5766e-05 3.58663e-05 3.59525e-05 3.60263e-05 3.60892e-05 3.61424e-05 3.61874e-05 3.62251e-05 3.62566e-05 3.62828e-05 3.63045e-05 3.63223e-05 3.6337e-05 3.63489e-05 3.63586e-05 3.63664e-05 3.63727e-05 3.63778e-05 3.63818e-05 3.6385e-05 3.63875e-05 3.63895e-05 3.6391e-05 3.63922e-05 3.63931e-05 3.63938e-05 3.63944e-05 3.63948e-05 3.63951e-05 3.63953e-05 3.63955e-05 3.63956e-05 3.63957e-05 3.63957e-05 3.63957e-05 3.63957e-05 3.63956e-05 3.63955e-05 3.63953e-05 3.63951e-05 3.63948e-05 3.63944e-05 3.63938e-05 3.63931e-05 3.63922e-05 3.6391e-05 3.63895e-05 3.63875e-05 3.6385e-05 3.63818e-05 3.63778e-05 3.63727e-05 3.63664e-05 3.63586e-05 3.63489e-05 3.6337e-05 3.63223e-05 3.63045e-05 3.62828e-05 3.62566e-05 3.62251e-05 3.61874e-05 3.61424e-05 3.60892e-05 3.60263e-05 3.59525e-05 3.58663e-05 3.5766e-05 3.56499e-05 3.55161e-05 3.53628e-05 3.51878e-05 3.49891e-05 3.47646e-05 3.45121e-05 3.42294e-05 3.39145e-05 3.35654e-05 3.31802e-05 3.27572e-05 3.2295e-05 3.17922e-05 3.12481e-05 3.06619e-05 3.00335e-05 2.9363e-05 2.86511e-05 2.78988e-05 2.71075e-05 2.62794e-05 2.54168e-05 2.45226e-05 2.36e-05 2.26528e-05 2.16849e-05 2.07005e-05 1.97043e-05 1.87009e-05 1.76951e-05 1.66917e-05 1.56955e-05 1.47112e-05 1.37433e-05 1.2796e-05 1.18735e-05 1.09792e-05 1.01166e-05 9.28851e-06 8.4973e-06 7.74497e-06 7.03304e-06 6.36256e-06 5.73414e-06 5.14797e-06 4.60381e-06 4.10108e-06 3.63884e-06 3.21586e-06 2.83067e-06 2.48156e-06 2.16666e-06 1.88399e-06 1.63146e-06 1.40692e-06 1.20824e-06 1.03328e-06 8.79935e-07 7.46184e-07 6.30078e-07 5.29771e-07 4.43527e-07 3.69729e-07 3.06882e-07 2.53616e-07 2.08687e-07 1.70969e-07 1.39458e-07 1.13256e-07 9.1574e-08 7.37169e-08 5.90804e-08 4.71406e-08 3.74472e-08 2.9615e-08 2.33167e-08 1.82759e-08 1.42607e-08 1.10776e-08 8.56603e-09 6.59347e-09 5.05134e-09 3.85102e-09 2.92059e-09 2.20195e-09 1.64834e-09 1.22221e-09 8.93469e-10 6.37886e-10 4.35811e-10 2.71039e-10 1.29824e-10 0 
0 1.75128e-10 3.65615e-10 5.87859e-10 8.60392e-10 1.20506e-09 1.64834e-09 2.22288e-09 2.96925e-09 3.93803e-09 5.19221e-09 6.81007e-09 8.8885e-09 1.15469e-08 1.49315e-08 1.92206e-08 2.46307e-08 3.14221e-08 3.99074e-08 5.04585e-08 6.35162e-08 7.95987e-08 9.93128e-08 1.23363e-07 1.52564e-07 1.87849e-07 2.30283e-07 2.81071e-07 3.41567e-07 4.13285e-07 4.97899e-07 5.97253e-07 7.13356e-07 8.48386e-07 1.00468e-06 1.18472e-06 1.39112e-06 1.62661e-06 1.89402e-06 2.19621e-06 2.53607e-06 2.91649e-06 3.34025e-06 3.81005e-06 4.32839e-06 4.89756e-06 5.51954e-06 6.196e-06 6.92818e-06 7.71687e-06 8.56239e-06 9.46448e-06 1.04223e-05 1.14345e-05 1.2499e-05 1.36131e-05 1.47737e-05 1.59767e-05 1.72178e-05 1.84922e-05 1.97943e-05 2.11185e-05 2.24587e-05 2.38086e-05 2.51617e-05 2.65116e-05 2.78518e-05 2.9176e-05 3.04781e-05 3.17525e-05 3.29936e-05 3.41967e-05 3.53572e-05 3.64713e-05 3.75358e-05 3.8548e-05 3.95058e-05 4.04079e-05 4.12534e-05 4.20421e-05 4.27743e-05 4.34508e-05 4.40728e-05 4.46419e-05 4.51603e-05 4.56301e-05 4.60538e-05 4.64342e-05 4.67741e-05 4.70763e-05 4.73437e-05 4.75792e-05 4.77856e-05 4.79656e-05 4.81219e-05 4.8257e-05 4.83731e-05 4.84724e-05 4.8557e-05 4.86287e-05 4.86892e-05 4.874e-05 4.87825e-05 4.88178e-05 4.8847e-05 4.8871e-05 4.88907e-05 4.89068e-05 4.89199e-05 4.89304e-05 4.89389e-05 4.89457e-05 4.89511e-05 4.89554e-05 4.89588e-05 4.89614e-05 4.89635e-05 4.89651e-05 4.89664e-05 4.89673e-05 4.8968e-05 4.89686e-05 4.8969e-05 4.89693e-05 4.89695e-05 4.89697e-05 4.89698e-05 4.89698e-05 4.89698e-05 4.89698e-05 4.89697e-05 4.89695e-05 4.89693e-05 4.8969e-05 4.89686e-05 4.8968e-05 4.89673e-05 4.89664e-05 4.89651e-05 4.89635e-05 4.89614e-05 4.89588e-05 4.89554e-05 4.89511e-05 4.89457e-05 4.89389e-05 4.89304e-05 4.89199e-05 4.89068e-05 4.88907e-05 4.8871e-05 4.8847e-05 4.88178e-05 4.87825e-05 4.874e-05 4.86892e-05 4.86287e-05 4.8557e-05 4.84724e-05 4.83731e-05 4.8257e-05 4.81219e-05 4.79656e-05 4.77856e-05 4.75792e-05 4.73437e-05 4.70763e-05 4.67741e-05 4.64342e-05 4.60538e-05 4.56301e-05 4.51603e-05 4.46419e-05 4.40728e-05 4.34508e-05 4.27743e-05 4.20421e-05 4.12534e-05 4.04079e-05 3.95058e-05 3.8548e-05 3.75358e-05 3.64713e-05 3.53572e-05 3.41967e-05 3.29936e-05 3.17525e-05 3.04781e-05 2.9176e-05 2.78518e-05 2.65116e-05 2.51617e-05 2.38086e-05 2.24587e-05 2.11185e-05 1.97943e-05 1.84922e-05 1.72178e-05 1.59767e-05 1.47737e-05 1.36131e-05 1.2499e-05 1.14345e-05 1.04223e-05 9.46448e-06 8.56239e-06 7.71687e-06 6.92818e-06 6.196e-06 5.51954e-06 4.89756e-06 4.32839e-06 3.81005e-06 3.34025e-06 2.91649e-06 2.53607e-06 2.19621e-06 1.89402e-06 1.62661e-06 1.39112e-06 1.18472e-06 1.00468e-06 8.48386e-07 7.13356e-07 5.97253e-07 4.97899e-07 4.13285e-07 3.41567e-07 2.81071e-07 2.30283e-07 1.87849e-07 1.52564e-07 1.23363e-07 9.93128e-08 7.95987e-08 6.35162e-08 5.04585e-08 3.99074e-08 3.14221e-08 2.46307e-08 1.92206e-08 1.49315e-08 1.15469e-08 8.8885e-09 6.81007e-09 5.19221e-09 3.93803e-09 2.96925e-09 2.22288e-09 1.64834e-09 1.20506e-09 8.60392e-10 5.87859e-10 3.65615e-10 1.75128e-10 0 
0 2.34005e-10 4.88519e-10 7.85441e-10 1.14951e-09 1.6099e-09 2.20195e-09 2.96925e-09 3.96594e-09 5.25952e-09 6.93406e-09 9.09401e-09 1.18686e-08 1.54172e-08 1.99348e-08 2.56595e-08 3.28796e-08 4.19428e-08 5.32657e-08 6.73443e-08 8.47663e-08 1.06223e-07 1.32523e-07 1.64606e-07 2.03558e-07 2.50623e-07 3.07221e-07 3.74958e-07 4.55639e-07 5.5128e-07 6.64114e-07 7.96597e-07 9.51408e-07 1.13145e-06 1.33983e-06 1.57986e-06 1.85503e-06 2.16897e-06 2.52544e-06 2.92826e-06 3.3813e-06 3.88836e-06 4.45319e-06 5.07936e-06 5.77021e-06 6.52878e-06 7.35773e-06 8.25924e-06 9.235e-06 1.02861e-05 1.14128e-05 1.26149e-05 1.38913e-05 1.52401e-05 1.66586e-05 1.81432e-05 1.96896e-05 2.12926e-05 2.29464e-05 2.46444e-05 2.63794e-05 2.81439e-05 2.99296e-05 3.17282e-05 3.35312e-05 3.53298e-05 3.71155e-05 3.888e-05 4.0615e-05 4.2313e-05 4.39668e-05 4.55698e-05 4.71162e-05 4.86008e-05 5.00193e-05 5.13681e-05 5.26445e-05 5.38466e-05 5.49734e-05 5.60244e-05 5.70002e-05 5.79017e-05 5.87306e-05 5.94892e-05 6.018e-05 6.08062e-05 6.13711e-05 6.18781e-05 6.23311e-05 6.2734e-05 6.30904e-05 6.34044e-05 6.36796e-05 6.39196e-05 6.4128e-05 6.4308e-05 6.44628e-05 6.45953e-05 6.47081e-05 6.48038e-05 6.48845e-05 6.49522e-05 6.50088e-05 6.50559e-05 6.50948e-05 6.51269e-05 6.51532e-05 6.51746e-05 6.51921e-05 6.52061e-05 6.52175e-05 6.52265e-05 6.52337e-05 6.52395e-05 6.5244e-05 6.52475e-05 6.52503e-05 6.52525e-05 6.52541e-05 6.52554e-05 6.52564e-05 6.52571e-05 6.52577e-05 6.52581e-05 6.52584e-05 6.52586e-05 6.52587e-05 6.52588e-05 6.52588e-05 6.52587e-05 6.52586e-05 6.52584e-05 6.52581e-05 6.52577e-05 6.52571e-05 6.52564e-05 6.52554e-05 6.52541e-05 6.52525e-05 6.52503e-05 6.52475e-05 6.5244e-05 6.52395e-05 6.52337e-05 6.52265e-05 6.52175e-05 6.52061e-05 6.51921e-05 6.51746e-05 6.51532e-05 6.51269e-05 6.50948e-05 6.50559e-05 6.50088e-05 6.49522e-05 6.48845e-05 6.48038e-05 6.47081e-05 6.45953e-05 6.44628e-05 6.4308e-05 6.4128e-05 6.39196e-05 6.36796e-05 6.34044e-05 6.30904e-05 6.2734e-05 6.23311e-05 6.18781e-05 6.13711e-05 6.08062e-05 6.018e-05 5.94892e-05 5.87306e-05 5.79017e-05 5.70002e-05 5.60244e-05 5.49734e-05 5.38466e-05 5.26445e-05 5.13681e-05 5.00193e-05 4.86008e-05 4.71162e-05 4.55698e-05 4.39668e-05 4.2313e-05 4.0615e-05 3.888e-05 3.71155e-05 3.53298e-05 3.35312e-05 3.17282e-05 2.99296e-05 2.81439e-05 2.63794e-05 2.46444e-05 2.29464e-05 2.12926e-05 1.96896e-05 1.81432e-05 1.66586e-05 1.52401e-05 1.38913e-05 1.26149e-05 1.14128e-05 1.02861e-05 9.235e-06 8.25924e-06 7.35773e-06 6.52878e-06 5.77021e-06 5.07936e-06 4.45319e-06 3.88836e-06 3.3813e-06 2.92826e-06 2.52544e-06 2.16897e-06 1.85503e-06 1.57986e-06 1.33983e-06 1.13145e-06 9.51408e-07 7.96597e-07 6.64114e-07 5.5128e-07 4.55639e-07 3.74958e-07 3.07221e-07 2.50623e-07 2.03558e-07 1.64606e-07 1.32523e-07 1.06223e-07 8.47663e-08 6.73443e-08 5.32657e-08 4.19428e-08 3.28796e-08 2.56595e-08 1.99348e-08 1.54172e-08 1.18686e-08 9.09401e-09 6.93406e-09 5.25952e-09 3.96594e-09 2.96925e-09 2.20195e-09 1.6099e-09 1.14951e-09 7.85441e-10 4.88519e-10 2.34005e-10 0 
0 3.10453e-10 6.48099e-10 1.04197e-09 1.52487e-09 2.13546e-09 2.92059e-09 3.93803e-09 5.25952e-09 6.97451e-09 9.19438e-09 1.20575e-08 1.57352e-08 2.04383e-08 2.64254e-08 3.40115e-08 4.35788e-08 5.55874e-08 7.05891e-08 8.92408e-08 1.1232e-07 1.40743e-07 1.75579e-07 2.18074e-07 2.69662e-07 3.31993e-07 4.06943e-07 4.9664e-07 6.03473e-07 7.30108e-07 8.79501e-07 1.0549e-06 1.25985e-06 1.49819e-06 1.77404e-06 2.09177e-06 2.456e-06 2.87153e-06 3.34334e-06 3.87648e-06 4.47605e-06 5.14711e-06 5.89459e-06 6.72322e-06 7.63742e-06 8.64121e-06 9.73809e-06 1.0931e-05 1.2222e-05 1.36127e-05 1.51035e-05 1.66941e-05 1.83828e-05 2.01673e-05 2.2044e-05 2.40081e-05 2.60539e-05 2.81746e-05 3.03625e-05 3.26089e-05 3.49043e-05 3.72385e-05 3.96009e-05 4.19803e-05 4.43655e-05 4.67449e-05 4.91073e-05 5.14415e-05 5.37369e-05 5.59833e-05 5.81712e-05 6.02919e-05 6.23377e-05 6.43019e-05 6.61785e-05 6.7963e-05 6.96518e-05 7.12423e-05 7.27331e-05 7.41238e-05 7.54148e-05 7.66077e-05 7.77046e-05 7.87084e-05 7.96226e-05 8.04512e-05 8.11987e-05 8.18698e-05 8.24693e-05 8.30025e-05 8.34743e-05 8.38898e-05 8.4254e-05 8.45718e-05 8.48476e-05 8.5086e-05 8.52909e-05 8.54663e-05 8.56157e-05 8.57423e-05 8.58492e-05 8.59389e-05 8.60138e-05 8.60762e-05 8.61277e-05 8.61702e-05 8.62051e-05 8.62335e-05 8.62566e-05 8.62752e-05 8.62902e-05 8.63022e-05 8.63118e-05 8.63194e-05 8.63254e-05 8.63301e-05 8.63337e-05 8.63366e-05 8.63388e-05 8.63405e-05 8.63418e-05 8.63428e-05 8.63435e-05 8.63441e-05 8.63445e-05 8.63447e-05 8.63449e-05 8.6345e-05 8.6345e-05 8.63449e-05 8.63447e-05 8.63445e-05 8.63441e-05 8.63435e-05 8.63428e-05 8.63418e-05 8.63405e-05 8.63388e-05 8.63366e-05 8.63337e-05 8.63301e-05 8.63254e-05 8.63194e-05 8.63118e-05 8.63022e-05 8.62902e-05 8.62752e-05 8.62566e-05 8.62335e-05 8.62051e-05 8.61702e-05 8.61277e-05 8.60762e-05 8.60138e-05 8.59389e-05 8.58492e-05 8.57423e-05 8.56157e-05 8.54663e-05 8.52909e-05 8.5086e-05 8.48476e-05 8.45718e-05 8.4254e-05 8.38898e-05 8.34743e-05 8.30025e-05 8.24693e-05 8.18698e-05 8.11987e-05 8.04512e-05 7.96226e-05 7.87084e-05 7.77046e-05 7.66077e-05 7.54148e-05 7.41238e-05 7.27331e-05 7.12423e-05 6.96518e-05 6.7963e-05 6.61785e-05 6.43019e-05 6.23377e-05 6.02919e-05 5.81712e-05 5.59833e-05 5.37369e-05 5.14415e-05 4.91073e-05 4.67449e-05 4.43655e-05 4.19803e-05 3.96009e-05 3.72385e-05 3.49043e-05 3.26089e-05 3.03625e-05 2.81746e-05 2.60539e-05 2.40081e-05 2.2044e-05 2.01673e-05 1.83828e-05 1.66941e-05 1.51035e-05 1.36127e-05 1.2222e-05 1.0931e-05 9.73809e-06 8.64121e-06 7.63742e-06 6.72322e-06 5.89459e-06 5.14711e-06 4.47605e-06 3.87648e-06 3.34334e-06 2.87153e-06 2.456e-06 2.09177e-06 1.77404e-06 1.49819e-06 1.25985e-06 1.0549e-06 8.79501e-07 7.30108e-07 6.03473e-07 4.9664e-07 4.06943e-07 3.31993e-07 2.69662e-07 2.18074e-07 1.75579e-07 1.40743e-07 1.1232e-07 8.92408e-08 7.05891e-08 5.55874e-08 4.35788e-08 3.40115e-08 2.64254e-08 2.04383e-08 1.57352e-08 1.20575e-08 9.19438e-09 6.97451e-09 5.25952e-09 3.93803e-09 2.92059e-09 2.13546e-09 1.52487e-09 1.04197e-09 6.48099e-10 3.10453e-10 0 