<?xml version="1.0"?>
<VTKFile type="ImageData" version="0.1" byte_order="LittleEndian">
  <ImageData WholeExtent="0 255 0 255 0 0" Origin="0 0 0" Spacing="1 1 1">
  <Piece Extent="0 255 0 255 0 0">
    <PointData>
      <DataArray type="Float32" Name="scalar_data" format="ascii" >0 0 0 0 0 0 0 0 0 0 0 0 0 0 0 0 0 0 0 0 0 0 0 0 0 0 0 0 0 0 0 0 0 0 0 0 0 0 0 0 0 0 0 0 0 0 0 0 0 0 0 0 0 0 0 0 0 0 0 0 0 0 0 0 0 0 0 0 0 0 0 0 0 0 0 0 0 0 0 0 0 0 0 0 0 0 0 0 0 0 0 0 0 0 0 0 0 0 0 0 0 0 0 0 0 0 0 0 0 0 0 0 0 0 0 0 0 0 0 0 0 0 0 0 0 0 0 0 0 0 0 0 0 0 0 0 0 0 0 0 0 0 0 0 0 0 0 0 0 0 0 0 0 0 0 0 0 0 0 0 0 0 0 0 0 0 0 0 0 0 0 0 0 0 0 0 0 0 0 0 0 0 0 0 0 0 0 0 0 0 0 0 0 0 0 0 0 0 0 0 0 0 0 0 0 0 0 0 0 0 0 0 0 0 0 0 0 0 0 0 0 0 0 0 0 0 0 0 0 0 0 0 0 0 0 0 0 0 0 0 0 0 0 0 0 0 0 0 0 0 0 0 0 0 0 0 
0 1.32276e-20 3.2125e-20 6.45387e-20 1.23403e-19 2.3133e-19 4.28292e-19 7.84657e-19 1.4232e-18 2.55598e-18 4.54534e-18 8.00382e-18 1.39557e-17 2.4095e-17 4.11934e-17 6.97353e-17 1.16897e-16 1.94035e-16 3.18923e-16 5.19065e-16 8.36546e-16 1.33504e-15 2.10976e-15 3.30153e-15 5.11615e-15 7.85091e-15 1.19303e-14 1.79532e-14 2.67546e-14 3.94844e-14 5.77076e-14 8.35269e-14 1.19734e-13 1.69985e-13 2.39011e-13 3.32854e-13 4.5912e-13 6.27264e-13 8.48867e-13 1.13791e-12 1.51104e-12 1.98774e-12 2.59047e-12 3.34466e-12 4.27864e-12 5.42328e-12 6.8116e-12 8.47804e-12 1.04576e-11 1.27847e-11 1.54921e-11 1.86092e-11 2.21609e-11 2.61657e-11 3.06345e-11 3.55694e-11 4.09625e-11 4.67949e-11 5.30371e-11 5.96485e-11 6.6578e-11 7.37655e-11 8.11433e-11 8.86375e-11 9.6171e-11 1.03665e-10 1.11043e-10 1.18231e-10 1.2516e-10 1.31771e-10 1.38014e-10 1.43846e-10 1.49239e-10 1.54174e-10 1.58643e-10 1.62648e-10 1.66199e-10 1.69316e-10 1.72024e-10 1.74351e-10 1.7633e-10 1.77997e-10 1.79385e-10 1.8053e-10 1.81464e-10 1.82218e-10 1.82821e-10 1.83297e-10 1.83671e-10 1.8396e-10 1.84181e-10 1.84349e-10 1.84476e-10 1.8457e-10 1.84639e-10 1.84689e-10 1.84725e-10 1.84751e-10 1.84769e-10 1.84782e-10 1.84791e-10 1.84797e-10 1.84801e-10 1.84803e-10 1.84805e-10 1.84806e-10 1.84807e-10 1.84808e-10 1.84808e-10 1.84808e-10 1.84808e-10 1.84808e-10 1.84808e-10 1.84809e-10 1.84809e-10 1.84809e-10 1.84809e-10 1.84809e-10 1.84809e-10 1.84809e-10 1.84809e-10 1.84809e-10 1.84809e-10 1.84809e-10 1.84809e-10 1.84809e-10 1.84809e-10 1.84809e-10 1.84809e-10 1.84809e-10 1.84809e-10 1.84809e-10 1.84809e-10 1.84809e-10 1.84809e-10 1.84809e-10 1.84809e-10 1.84809e-10 1.84809e-10 1.84809e-10 1.84809e-10 1.84809e-10 1.84809e-10 1.84808e-10 1.84808e-10 1.84808e-10 1.84808e-10 1.84808e-10 1.84808e-10 1.84807e-10 1.84806e-10 1.84805e-10 1.84803e-10 1.84801e-10 1.84797e-10 1.84791e-10 1.84782e-10 1.84769e-10 1.84751e-10 1.84725e-10 1.84689e-10 1.84639e-10 1.8457e-10 1.84476e-10 1.84349e-10 1.84181e-10 1.8396e-10 1.83671e-10 1.83297e-10 1.82821e-10 1.82218e-10 1.81464e-10 1.8053e-10 1.79385e-10 1.77997e-10 1.7633e-10 1.74351e-10 1.72024e-10 1.69316e-10 1.66199e-10 1.62648e-10 1.58643e-10 1.54174e-10 1.49239e-10 1.43846e-10 1.38014e-10 1.31771e-10 1.2516e-10 1.18231e-10 1.11043e-10 1.03665e-10 9.6171e-11 8.86375e-11 8.11433e-11 7.37655e-11 6.6578e-11 5.96485e-11 5.30371e-11 4.67949e-11 4.09625e-11 3.55694e-11 3.06345e-11 2.61657e-11 2.21609e-11 1.86092e-11 1.54921e-11 1.27847e-11 1.04576e-11 8.47804e-12 6.8116e-12 5.42328e-12 4.27864e-12 3.34466e-12 2.59047e-12 1.98774e-12 1.51104e-12 1.13791e-12 8.48867e-13 6.27264e-13 4.5912e-13 3.32854e-13 2.39011e-13 1.69985e-13 1.19734e-13 8.35269e-14 5.77076e-14 3.94844e-14 2.67546e-14 1.79532e-14 1.19303e-14 7.85091e-15 5.11615e-15 3.30153e-15 2.10976e-15 1.33504e-15 8.36546e-16 5.19065e-16 3.18923e-16 1.94035e-16 1.16897e-16 6.97353e-17 4.11934e-17 2.4095e-17 1.39557e-17 8.00382e-18 4.54534e-18 2.55598e-18 1.4232e-18 7.84657e-19 4.28292e-19 2.3133e-19 1.23403e-19 6.45387e-20 3.2125e-20 1.32276e-20 0 
0 3.2125e-20 7.79949e-20 1.56622e-19 2.99326e-19 5.60827e-19 1.03781e-18 1.90036e-18 3.44516e-18 6.18427e-18 1.09923e-17 1.93472e-17 3.37188e-17 5.81907e-17 9.94404e-17 1.68268e-16 2.81947e-16 4.67806e-16 7.68593e-16 1.25043e-15 2.01447e-15 3.21367e-15 5.07671e-15 7.94161e-15 1.23022e-14 1.88718e-14 2.86682e-14 4.31271e-14 6.42496e-14 9.47906e-14 1.38498e-13 2.00407e-13 2.87197e-13 4.07621e-13 5.72996e-13 7.97767e-13 1.10013e-12 1.50267e-12 2.03308e-12 2.72476e-12 3.61747e-12 4.75773e-12 6.19917e-12 8.00252e-12 1.02353e-11 1.29714e-11 1.62893e-11 2.02713e-11 2.50009e-11 3.05601e-11 3.70269e-11 4.44716e-11 5.29532e-11 6.25159e-11 7.31857e-11 8.49674e-11 9.78419e-11 1.11765e-10 1.26664e-10 1.42445e-10 1.58984e-10 1.76138e-10 1.93746e-10 2.11632e-10 2.29611e-10 2.47497e-10 2.65105e-10 2.82259e-10 2.98798e-10 3.14579e-10 3.29478e-10 3.43401e-10 3.56276e-10 3.68057e-10 3.78727e-10 3.8829e-10 3.96771e-10 4.04216e-10 4.10683e-10 4.16242e-10 4.20972e-10 4.24954e-10 4.28272e-10 4.31008e-10 4.3324e-10 4.35044e-10 4.36485e-10 4.37625e-10 4.38518e-10 4.3921e-10 4.3974e-10 4.40143e-10 4.40445e-10 4.4067e-10 4.40835e-10 4.40956e-10 4.41042e-10 4.41104e-10 4.41148e-10 4.41179e-10 4.412e-10 4.41214e-10 4.41224e-10 4.41231e-10 4.41235e-10 4.41238e-10 4.4124e-10 4.41241e-10 4.41242e-10 4.41242e-10 4.41242e-10 4.41243e-10 4.41243e-10 4.41243e-10 4.41243e-10 4.41243e-10 4.41243e-10 4.41243e-10 4.41243e-10 4.41243e-10 4.41243e-10 4.41243e-10 4.41243e-10 4.41243e-10 4.41243e-10 4.41243e-10 4.41243e-10 4.41243e-10 4.41243e-10 4.41243e-10 4.41243e-10 4.41243e-10 4.41243e-10 4.41243e-10 4.41243e-10 4.41243e-10 4.41243e-10 4.41243e-10 4.41243e-10 4.41243e-10 4.41243e-10 4.41243e-10 4.41243e-10 4.41243e-10 4.41243e-10 4.41242e-10 4.41242e-10 4.41242e-10 4.41241e-10 4.4124e-10 4.41238e-10 4.41235e-10 4.41231e-10 4.41224e-10 4.41214e-10 4.412e-10 4.41179e-10 4.41148e-10 4.41104e-10 4.41042e-10 4.40956e-10 4.40835e-10 4.4067e-10 4.40445e-10 4.40143e-10 4.3974e-10 4.3921e-10 4.38518e-10 4.37625e-10 4.36485e-10 4.35044e-10 4.3324e-10 4.31008e-10 4.28272e-10 4.24954e-10 4.20972e-10 4.16242e-10 4.10683e-10 4.04216e-10 3.96771e-10 3.8829e-10 3.78727e-10 3.68057e-10 3.56276e-10 3.43401e-10 3.29478e-10 3.14579e-10 2.98798e-10 2.82259e-10 2.65105e-10 2.47497e-10 2.29611e-10 2.11632e-10 1.93746e-10 1.76138e-10 1.58984e-10 1.42445e-10 1.26664e-10 1.11765e-10 9.78419e-11 8.49674e-11 7.31857e-11 6.25159e-11 5.29532e-11 4.44716e-11 3.70269e-11 3.05601e-11 2.50009e-11 2.02713e-11 1.62893e-11 1.29714e-11 1.02353e-11 8.00252e-12 6.19917e-12 4.75773e-12 3.61747e-12 2.72476e-12 2.03308e-12 1.50267e-12 1.10013e-12 7.97767e-13 5.72996e-13 4.07621e-13 2.87197e-13 2.00407e-13 1.38498e-13 9.47906e-14 6.42496e-14 4.31271e-14 2.86682e-14 1.88718e-14 1.23022e-14 7.94161e-15 5.07671e-15 3.21367e-15 2.01447e-15 1.25043e-15 7.68593e-16 4.67806e-16 2.81947e-16 1.68268e-16 9.94404e-17 5.81907e-17 3.37188e-17 1.93472e-17 1.09923e-17 6.18427e-18 3.44516e-18 1.90036e-18 1.03781e-18 5.60827e-19 2.99326e-19 1.56622e-19 7.79949e-20 3.2125e-20 0 
0 6.45387e-20 1.56622e-19 3.14323e-19 6.00305e-19 1.12396e-18 2.07841e-18 3.80319e-18 6.89005e-18 1.23597e-17 2.19545e-17 3.86162e-17 6.72585e-17 1.16e-16 1.98108e-16 3.35027e-16 5.61038e-16 9.3034e-16 1.52767e-15 2.48402e-15 3.99965e-15 6.37726e-15 1.00692e-14 1.57436e-14 2.43763e-14 3.73758e-14 5.67514e-14 8.53359e-14 1.27075e-13 1.87401e-13 2.73697e-13 3.9588e-13 5.67104e-13 8.0459e-13 1.1306e-12 1.57355e-12 2.1692e-12 2.96195e-12 4.00617e-12 5.36749e-12 7.12392e-12 9.3668e-12 1.22013e-11 1.57466e-11 2.01352e-11 2.55114e-11 3.20298e-11 3.98511e-11 4.91388e-11 6.00539e-11 7.27487e-11 8.73607e-11 1.04005e-10 1.22769e-10 1.43703e-10 1.66815e-10 1.92069e-10 2.19376e-10 2.48597e-10 2.79543e-10 3.11975e-10 3.45613e-10 3.80139e-10 4.15209e-10 4.50462e-10 4.85532e-10 5.20058e-10 5.53696e-10 5.86128e-10 6.17074e-10 6.46295e-10 6.73602e-10 6.98856e-10 7.21968e-10 7.42902e-10 7.61666e-10 7.7831e-10 7.92922e-10 8.05617e-10 8.16532e-10 8.2582e-10 8.33641e-10 8.4016e-10 8.45536e-10 8.49924e-10 8.5347e-10 8.56304e-10 8.58547e-10 8.60304e-10 8.61665e-10 8.62709e-10 8.63502e-10 8.64098e-10 8.64541e-10 8.64867e-10 8.65104e-10 8.65275e-10 8.65397e-10 8.65484e-10 8.65544e-10 8.65586e-10 8.65614e-10 8.65634e-10 8.65647e-10 8.65655e-10 8.65661e-10 8.65665e-10 8.65667e-10 8.65669e-10 8.6567e-10 8.6567e-10 8.65671e-10 8.65671e-10 8.65671e-10 8.65671e-10 8.65671e-10 8.65671e-10 8.65671e-10 8.65671e-10 8.65671e-10 8.65671e-10 8.65671e-10 8.65671e-10 8.65671e-10 8.65671e-10 8.65671e-10 8.65671e-10 8.65671e-10 8.65671e-10 8.65671e-10 8.65671e-10 8.65671e-10 8.65671e-10 8.65671e-10 8.65671e-10 8.65671e-10 8.65671e-10 8.65671e-10 8.65671e-10 8.65671e-10 8.65671e-10 8.65671e-10 8.65671e-10 8.65671e-10 8.65671e-10 8.6567e-10 8.6567e-10 8.65669e-10 8.65667e-10 8.65665e-10 8.65661e-10 8.65655e-10 8.65647e-10 8.65634e-10 8.65614e-10 8.65586e-10 8.65544e-10 8.65484e-10 8.65397e-10 8.65275e-10 8.65104e-10 8.64867e-10 8.64541e-10 8.64098e-10 8.63502e-10 8.62709e-10 8.61665e-10 8.60304e-10 8.58547e-10 8.56304e-10 8.5347e-10 8.49924e-10 8.45536e-10 8.4016e-10 8.33641e-10 8.2582e-10 8.16532e-10 8.05617e-10 7.92922e-10 7.7831e-10 7.61666e-10 7.42902e-10 7.21968e-10 6.98856e-10 6.73602e-10 6.46295e-10 6.17074e-10 5.86128e-10 5.53696e-10 5.20058e-10 4.85532e-10 4.50462e-10 4.15209e-10 3.80139e-10 3.45613e-10 3.11975e-10 2.79543e-10 2.48597e-10 2.19376e-10 1.92069e-10 1.66815e-10 1.43703e-10 1.22769e-10 1.04005e-10 8.73607e-11 7.27487e-11 6.00539e-11 4.91388e-11 3.98511e-11 3.20298e-11 2.55114e-11 2.01352e-11 1.57466e-11 1.22013e-11 9.3668e-12 7.12392e-12 5.36749e-12 4.00617e-12 2.96195e-12 2.1692e-12 1.57355e-12 1.1306e-12 8.0459e-13 5.67104e-13 3.9588e-13 2.73697e-13 1.87401e-13 1.27075e-13 8.53359e-14 5.67514e-14 3.73758e-14 2.43763e-14 1.57436e-14 1.00692e-14 6.37726e-15 3.99965e-15 2.48402e-15 1.52767e-15 9.3034e-16 5.61038e-16 3.35027e-16 1.98108e-16 1.16e-16 6.72585e-17 3.86162e-17 2.19545e-17 1.23597e-17 6.89005e-18 3.80319e-18 2.07841e-18 1.12396e-18 6.00305e-19 3.14323e-19 1.56622e-19 6.45387e-20 0 
0 1.23403e-19 2.99326e-19 6.00305e-19 1.1456e-18 2.14322e-18 3.96006e-18 7.24066e-18 1.31074e-17 2.34948e-17 4.17026e-17 7.32977e-17 1.27572e-16 2.19868e-16 3.75237e-16 6.34147e-16 1.06124e-15 1.75866e-15 2.88599e-15 4.68976e-15 7.54667e-15 1.20257e-14 1.89766e-14 2.9654e-14 4.58889e-14 7.03229e-14 1.06722e-13 1.60394e-13 2.38728e-13 3.51887e-13 5.13686e-13 7.42667e-13 1.06341e-12 1.50809e-12 2.11828e-12 2.947e-12 4.06096e-12 5.54299e-12 7.49444e-12 1.00376e-11 1.33178e-11 1.75051e-11 2.27953e-11 2.94102e-11 3.75961e-11 4.76218e-11 5.97741e-11 7.43521e-11 9.16595e-11 1.11995e-10 1.35642e-10 1.62855e-10 1.93848e-10 2.28782e-10 2.67749e-10 3.10767e-10 3.57765e-10 4.08579e-10 4.62951e-10 5.20527e-10 5.80865e-10 6.43442e-10 7.0767e-10 7.72908e-10 8.38488e-10 9.03726e-10 9.67954e-10 1.03053e-09 1.09087e-09 1.14845e-09 1.20282e-09 1.25363e-09 1.30063e-09 1.34365e-09 1.38261e-09 1.41755e-09 1.44854e-09 1.47575e-09 1.4994e-09 1.51974e-09 1.53704e-09 1.55162e-09 1.56377e-09 1.5738e-09 1.58199e-09 1.5886e-09 1.59389e-09 1.59808e-09 1.60136e-09 1.6039e-09 1.60585e-09 1.60734e-09 1.60845e-09 1.60928e-09 1.60989e-09 1.61033e-09 1.61065e-09 1.61088e-09 1.61104e-09 1.61116e-09 1.61124e-09 1.61129e-09 1.61133e-09 1.61135e-09 1.61137e-09 1.61138e-09 1.61138e-09 1.61139e-09 1.61139e-09 1.61139e-09 1.61139e-09 1.6114e-09 1.6114e-09 1.6114e-09 1.6114e-09 1.6114e-09 1.6114e-09 1.6114e-09 1.6114e-09 1.6114e-09 1.6114e-09 1.6114e-09 1.6114e-09 1.6114e-09 1.6114e-09 1.6114e-09 1.6114e-09 1.6114e-09 1.6114e-09 1.6114e-09 1.6114e-09 1.6114e-09 1.6114e-09 1.6114e-09 1.6114e-09 1.6114e-09 1.6114e-09 1.6114e-09 1.6114e-09 1.6114e-09 1.6114e-09 1.6114e-09 1.6114e-09 1.6114e-09 1.6114e-09 1.61139e-09 1.61139e-09 1.61139e-09 1.61139e-09 1.61138e-09 1.61138e-09 1.61137e-09 1.61135e-09 1.61133e-09 1.61129e-09 1.61124e-09 1.61116e-09 1.61104e-09 1.61088e-09 1.61065e-09 1.61033e-09 1.60989e-09 1.60928e-09 1.60845e-09 1.60734e-09 1.60585e-09 1.6039e-09 1.60136e-09 1.59808e-09 1.59389e-09 1.5886e-09 1.58199e-09 1.5738e-09 1.56377e-09 1.55162e-09 1.53704e-09 1.51974e-09 1.4994e-09 1.47575e-09 1.44854e-09 1.41755e-09 1.38261e-09 1.34365e-09 1.30063e-09 1.25363e-09 1.20282e-09 1.14845e-09 1.09087e-09 1.03053e-09 9.67954e-10 9.03726e-10 8.38488e-10 7.72908e-10 7.0767e-10 6.43442e-10 5.80865e-10 5.20527e-10 4.62951e-10 4.08579e-10 3.57765e-10 3.10767e-10 2.67749e-10 2.28782e-10 1.93848e-10 1.62855e-10 1.35642e-10 1.11995e-10 9.16595e-11 7.43521e-11 5.97741e-11 4.76218e-11 3.75961e-11 2.94102e-11 2.27953e-11 1.75051e-11 1.33178e-11 1.00376e-11 7.49444e-12 5.54299e-12 4.06096e-12 2.947e-12 2.11828e-12 1.50809e-12 1.06341e-12 7.42667e-13 5.13686e-13 3.51887e-13 2.38728e-13 1.60394e-13 1.06722e-13 7.03229e-14 4.58889e-14 2.9654e-14 1.89766e-14 1.20257e-14 7.54667e-15 4.68976e-15 2.88599e-15 1.75866e-15 1.06124e-15 6.34147e-16 3.75237e-16 2.19868e-16 1.27572e-16 7.32977e-17 4.17026e-17 2.34948e-17 1.31074e-17 7.24066e-18 3.96006e-18 2.14322e-18 1.1456e-18 6.00305e-19 2.99326e-19 1.23403e-19 0 
0 2.3133e-19 5.60827e-19 1.12396e-18 2.14322e-18 4.00629e-18 7.39637e-18 1.35127e-17 2.44417e-17 4.37769e-17 7.76424e-17 1.36363e-16 2.37159e-16 4.08439e-16 6.96563e-16 1.17636e-15 1.96728e-15 3.25793e-15 5.34278e-15 8.6765e-15 1.39533e-14 2.2221e-14 3.50437e-14 5.47292e-14 8.46438e-14 1.29641e-13 1.96637e-13 2.95371e-13 4.39397e-13 6.47351e-13 9.44544e-13 1.36494e-12 1.95353e-12 2.76919e-12 3.88795e-12 5.40674e-12 7.44748e-12 1.01614e-11 1.37337e-11 1.83874e-11 2.43877e-11 3.20448e-11 4.17157e-11 5.38044e-11 6.87599e-11 8.70715e-11 1.09261e-10 1.35874e-10 1.67462e-10 2.04569e-10 2.47708e-10 2.97344e-10 3.53865e-10 4.17562e-10 4.88603e-10 5.67018e-10 6.52677e-10 7.45282e-10 8.44362e-10 9.49273e-10 1.05921e-09 1.17322e-09 1.29023e-09 1.40908e-09 1.52856e-09 1.64741e-09 1.76442e-09 1.87843e-09 1.98837e-09 2.09328e-09 2.19236e-09 2.28496e-09 2.37062e-09 2.44904e-09 2.52008e-09 2.58378e-09 2.6403e-09 2.68993e-09 2.73307e-09 2.77018e-09 2.80177e-09 2.82838e-09 2.85057e-09 2.86888e-09 2.88384e-09 2.89593e-09 2.9056e-09 2.91325e-09 2.91925e-09 2.92391e-09 2.92748e-09 2.93019e-09 2.93223e-09 2.93375e-09 2.93487e-09 2.93569e-09 2.93628e-09 2.9367e-09 2.93699e-09 2.9372e-09 2.93735e-09 2.93744e-09 2.93751e-09 2.93756e-09 2.93759e-09 2.93761e-09 2.93762e-09 2.93763e-09 2.93763e-09 2.93764e-09 2.93764e-09 2.93764e-09 2.93764e-09 2.93764e-09 2.93764e-09 2.93764e-09 2.93764e-09 2.93764e-09 2.93764e-09 2.93764e-09 2.93764e-09 2.93764e-09 2.93764e-09 2.93764e-09 2.93764e-09 2.93764e-09 2.93764e-09 2.93764e-09 2.93764e-09 2.93764e-09 2.93764e-09 2.93764e-09 2.93764e-09 2.93764e-09 2.93764e-09 2.93764e-09 2.93764e-09 2.93764e-09 2.93764e-09 2.93764e-09 2.93764e-09 2.93764e-09 2.93764e-09 2.93764e-09 2.93764e-09 2.93764e-09 2.93764e-09 2.93763e-09 2.93763e-09 2.93762e-09 2.93761e-09 2.93759e-09 2.93756e-09 2.93751e-09 2.93744e-09 2.93735e-09 2.9372e-09 2.93699e-09 2.9367e-09 2.93628e-09 2.93569e-09 2.93487e-09 2.93375e-09 2.93223e-09 2.93019e-09 2.92748e-09 2.92391e-09 2.91925e-09 2.91325e-09 2.9056e-09 2.89593e-09 2.88384e-09 2.86888e-09 2.85057e-09 2.82838e-09 2.80177e-09 2.77018e-09 2.73307e-09 2.68993e-09 2.6403e-09 2.58378e-09 2.52008e-09 2.44904e-09 2.37062e-09 2.28496e-09 2.19236e-09 2.09328e-09 1.98837e-09 1.87843e-09 1.76442e-09 1.64741e-09 1.52856e-09 1.40908e-09 1.29023e-09 1.17322e-09 1.05921e-09 9.49273e-10 8.44362e-10 7.45282e-10 6.52677e-10 5.67018e-10 4.88603e-10 4.17562e-10 3.53865e-10 2.97344e-10 2.47708e-10 2.04569e-10 1.67462e-10 1.35874e-10 1.09261e-10 8.70715e-11 6.87599e-11 5.38044e-11 4.17157e-11 3.20448e-11 2.43877e-11 1.83874e-11 1.37337e-11 1.01614e-11 7.44748e-12 5.40674e-12 3.88795e-12 2.76919e-12 1.95353e-12 1.36494e-12 9.44544e-13 6.47351e-13 4.39397e-13 2.95371e-13 1.96637e-13 1.29641e-13 8.46438e-14 5.47292e-14 3.50437e-14 2.2221e-14 1.39533e-14 8.6765e-15 5.34278e-15 3.25793e-15 1.96728e-15 1.17636e-15 6.96563e-16 4.08439e-16 2.37159e-16 1.36363e-16 7.76424e-17 4.37769e-17 2.44417e-17 1.35127e-17 7.39637e-18 4.00629e-18 2.14322e-18 1.12396e-18 5.60827e-19 2.3133e-19 0 
0 4.28292e-19 1.03781e-18 2.07841e-18 3.96006e-18 7.39637e-18 1.36439e-17 2.49061e-17 4.50138e-17 8.05595e-17 1.42769e-16 2.50554e-16 4.35431e-16 7.49357e-16 1.27706e-15 2.15519e-15 3.60174e-15 5.96066e-15 9.76861e-15 1.58536e-14 2.54792e-14 4.05513e-14 6.39131e-14 9.9757e-14 1.54195e-13 2.36033e-13 3.57815e-13 5.37192e-13 7.9872e-13 1.17614e-12 1.71525e-12 2.47749e-12 3.5442e-12 5.02176e-12 7.04752e-12 9.79646e-12 1.34886e-11 1.83968e-11 2.48548e-11 3.32648e-11 4.41045e-11 5.79327e-11 7.5392e-11 9.72097e-11 1.24193e-10 1.57223e-10 1.97238e-10 2.45217e-10 3.02151e-10 3.69018e-10 4.4674e-10 5.36149e-10 6.37942e-10 7.5264e-10 8.80544e-10 1.0217e-09 1.17589e-09 1.34255e-09 1.52086e-09 1.70964e-09 1.90745e-09 2.11258e-09 2.32311e-09 2.53694e-09 2.75189e-09 2.96572e-09 3.17625e-09 3.38138e-09 3.57919e-09 3.76797e-09 3.94628e-09 4.11294e-09 4.26713e-09 4.40829e-09 4.53619e-09 4.65089e-09 4.75268e-09 4.84209e-09 4.91981e-09 4.98668e-09 5.04361e-09 5.09159e-09 5.13161e-09 5.16464e-09 5.19162e-09 5.21344e-09 5.2309e-09 5.24473e-09 5.25557e-09 5.26398e-09 5.27043e-09 5.27534e-09 5.27903e-09 5.28178e-09 5.28381e-09 5.28529e-09 5.28635e-09 5.28712e-09 5.28765e-09 5.28803e-09 5.28829e-09 5.28847e-09 5.28859e-09 5.28868e-09 5.28873e-09 5.28877e-09 5.28879e-09 5.2888e-09 5.28881e-09 5.28882e-09 5.28882e-09 5.28883e-09 5.28883e-09 5.28883e-09 5.28883e-09 5.28883e-09 5.28883e-09 5.28883e-09 5.28883e-09 5.28883e-09 5.28883e-09 5.28883e-09 5.28883e-09 5.28883e-09 5.28883e-09 5.28883e-09 5.28883e-09 5.28883e-09 5.28883e-09 5.28883e-09 5.28883e-09 5.28883e-09 5.28883e-09 5.28883e-09 5.28883e-09 5.28883e-09 5.28883e-09 5.28883e-09 5.28883e-09 5.28883e-09 5.28883e-09 5.28883e-09 5.28883e-09 5.28883e-09 5.28883e-09 5.28882e-09 5.28882e-09 5.28881e-09 5.2888e-09 5.28879e-09 5.28877e-09 5.28873e-09 5.28868e-09 5.28859e-09 5.28847e-09 5.28829e-09 5.28803e-09 5.28765e-09 5.28712e-09 5.28635e-09 5.28529e-09 5.28381e-09 5.28178e-09 5.27903e-09 5.27534e-09 5.27043e-09 5.26398e-09 5.25557e-09 5.24473e-09 5.2309e-09 5.21344e-09 5.19162e-09 5.16464e-09 5.13161e-09 5.09159e-09 5.04361e-09 4.98668e-09 4.91981e-09 4.84209e-09 4.75268e-09 4.65089e-09 4.53619e-09 4.40829e-09 4.26713e-09 4.11294e-09 3.94628e-09 3.76797e-09 3.57919e-09 3.38138e-09 3.17625e-09 2.96572e-09 2.75189e-09 2.53694e-09 2.32311e-09 2.11258e-09 1.90745e-09 1.70964e-09 1.52086e-09 1.34255e-09 1.17589e-09 1.0217e-09 8.80544e-10 7.5264e-10 6.37942e-10 5.36149e-10 4.4674e-10 3.69018e-10 3.02151e-10 2.45217e-10 1.97238e-10 1.57223e-10 1.24193e-10 9.72097e-11 7.5392e-11 5.79327e-11 4.41045e-11 3.32648e-11 2.48548e-11 1.83968e-11 1.34886e-11 9.79646e-12 7.04752e-12 5.02176e-12 3.5442e-12 2.47749e-12 1.71525e-12 1.17614e-12 7.9872e-13 5.37192e-13 3.57815e-13 2.36033e-13 1.54195e-13 9.9757e-14 6.39131e-14 4.05513e-14 2.54792e-14 1.58536e-14 9.76861e-15 5.96066e-15 3.60174e-15 2.15519e-15 1.27706e-15 7.49357e-16 4.35431e-16 2.50554e-16 1.42769e-16 8.05595e-17 4.50138e-17 2.49061e-17 1.36439e-17 7.39637e-18 3.96006e-18 2.07841e-18 1.03781e-18 4.28292e-19 0 
0 7.84657e-19 1.90036e-18 3.80319e-18 7.24066e-18 1.35127e-17 2.49061e-17 4.54278e-17 8.20384e-17 1.46706e-16 2.59796e-16 4.55589e-16 7.91172e-16 1.36058e-15 2.31707e-15 3.9076e-15 6.52592e-15 1.07928e-14 1.76762e-14 2.86687e-14 4.6046e-14 7.32396e-14 1.15364e-13 1.79958e-13 2.78004e-13 4.25318e-13 6.44412e-13 9.66955e-13 1.43697e-12 2.11493e-12 3.08286e-12 4.45076e-12 6.36417e-12 9.01337e-12 1.26439e-11 1.75684e-11 2.418e-11 3.29657e-11 4.45213e-11 5.95643e-11 7.89467e-11 1.03664e-10 1.34863e-10 1.73838e-10 2.22027e-10 2.80997e-10 3.5242e-10 4.38036e-10 5.3961e-10 6.58877e-10 7.97479e-10 9.56891e-10 1.13835e-09 1.34278e-09 1.57072e-09 1.82224e-09 2.09694e-09 2.39385e-09 2.71145e-09 3.0477e-09 3.40001e-09 3.76534e-09 4.14026e-09 4.52106e-09 4.90384e-09 5.28464e-09 5.65957e-09 6.0249e-09 6.37721e-09 6.71345e-09 7.03106e-09 7.32797e-09 7.60266e-09 7.85419e-09 8.08212e-09 8.28655e-09 8.46801e-09 8.62743e-09 8.76603e-09 8.8853e-09 8.98687e-09 9.07248e-09 9.14391e-09 9.20288e-09 9.25107e-09 9.29004e-09 9.32124e-09 9.34596e-09 9.36534e-09 9.38038e-09 9.39194e-09 9.40073e-09 9.40734e-09 9.41226e-09 9.41589e-09 9.41854e-09 9.42045e-09 9.42182e-09 9.42279e-09 9.42347e-09 9.42394e-09 9.42426e-09 9.42448e-09 9.42463e-09 9.42473e-09 9.42479e-09 9.42483e-09 9.42486e-09 9.42488e-09 9.42489e-09 9.42489e-09 9.4249e-09 9.4249e-09 9.4249e-09 9.4249e-09 9.4249e-09 9.4249e-09 9.4249e-09 9.4249e-09 9.4249e-09 9.4249e-09 9.42491e-09 9.42491e-09 9.42491e-09 9.42491e-09 9.42491e-09 9.42491e-09 9.42491e-09 9.42491e-09 9.42491e-09 9.42491e-09 9.42491e-09 9.42491e-09 9.42491e-09 9.42491e-09 9.4249e-09 9.4249e-09 9.4249e-09 9.4249e-09 9.4249e-09 9.4249e-09 9.4249e-09 9.4249e-09 9.4249e-09 9.4249e-09 9.42489e-09 9.42489e-09 9.42488e-09 9.42486e-09 9.42483e-09 9.42479e-09 9.42473e-09 9.42463e-09 9.42448e-09 9.42426e-09 9.42394e-09 9.42347e-09 9.42279e-09 9.42182e-09 9.42045e-09 9.41854e-09 9.41589e-09 9.41226e-09 9.40734e-09 9.40073e-09 9.39194e-09 9.38038e-09 9.36534e-09 9.34596e-09 9.32124e-09 9.29004e-09 9.25107e-09 9.20288e-09 9.14391e-09 9.07248e-09 8.98687e-09 8.8853e-09 8.76603e-09 8.62743e-09 8.46801e-09 8.28655e-09 8.08212e-09 7.85419e-09 7.60266e-09 7.32797e-09 7.03106e-09 6.71345e-09 6.37721e-09 6.0249e-09 5.65957e-09 5.28464e-09 4.90384e-09 4.52106e-09 4.14026e-09 3.76534e-09 3.40001e-09 3.0477e-09 2.71145e-09 2.39385e-09 2.09694e-09 1.82224e-09 1.57072e-09 1.34278e-09 1.13835e-09 9.56891e-10 7.97479e-10 6.58877e-10 5.3961e-10 4.38036e-10 3.5242e-10 2.80997e-10 2.22027e-10 1.73838e-10 1.34863e-10 1.03664e-10 7.89467e-11 5.95643e-11 4.45213e-11 3.29657e-11 2.418e-11 1.75684e-11 1.26439e-11 9.01337e-12 6.36417e-12 4.45076e-12 3.08286e-12 2.11493e-12 1.43697e-12 9.66955e-13 6.44412e-13 4.25318e-13 2.78004e-13 1.79958e-13 1.15364e-13 7.32396e-14 4.6046e-14 2.86687e-14 1.76762e-14 1.07928e-14 6.52592e-15 3.9076e-15 2.31707e-15 1.36058e-15 7.91172e-16 4.55589e-16 2.59796e-16 1.46706e-16 8.20384e-17 4.54278e-17 2.49061e-17 1.35127e-17 7.24066e-18 3.80319e-18 1.90036e-18 7.84657e-19 0 
0 1.4232e-18 3.44516e-18 6.89005e-18 1.31074e-17 2.44417e-17 4.50138e-17 8.20384e-17 1.48038e-16 2.64527e-16 4.68086e-16 8.20246e-16 1.4234e-15 2.44608e-15 4.16275e-15 7.01543e-15 1.17083e-14 1.93509e-14 3.1672e-14 5.13359e-14 8.24022e-14 1.30988e-13 2.06206e-13 3.21479e-13 4.9635e-13 7.58949e-13 1.14929e-12 1.72365e-12 2.56019e-12 3.76621e-12 5.48728e-12 7.91835e-12 1.13174e-11 1.60215e-11 2.24653e-11 3.12023e-11 4.29278e-11 5.85031e-11 7.89813e-11 1.0563e-10 1.39955e-10 1.83713e-10 2.38928e-10 3.07884e-10 3.93118e-10 4.97394e-10 6.23656e-10 7.74972e-10 9.5445e-10 1.16515e-09 1.40995e-09 1.69146e-09 2.01184e-09 2.37273e-09 2.77505e-09 3.21895e-09 3.70368e-09 4.22755e-09 4.7879e-09 5.38108e-09 6.00256e-09 6.64698e-09 7.3083e-09 7.97998e-09 8.65514e-09 9.32681e-09 9.98813e-09 1.06325e-08 1.1254e-08 1.18472e-08 1.24076e-08 1.29314e-08 1.34162e-08 1.38601e-08 1.42624e-08 1.46233e-08 1.49437e-08 1.52252e-08 1.547e-08 1.56807e-08 1.58601e-08 1.60115e-08 1.61377e-08 1.6242e-08 1.63272e-08 1.63962e-08 1.64514e-08 1.64952e-08 1.65295e-08 1.65561e-08 1.65766e-08 1.65922e-08 1.66039e-08 1.66126e-08 1.66191e-08 1.66238e-08 1.66272e-08 1.66296e-08 1.66313e-08 1.66326e-08 1.66334e-08 1.6634e-08 1.66344e-08 1.66346e-08 1.66348e-08 1.66349e-08 1.6635e-08 1.6635e-08 1.66351e-08 1.66351e-08 1.66351e-08 1.66351e-08 1.66351e-08 1.66351e-08 1.66351e-08 1.66351e-08 1.66351e-08 1.66351e-08 1.66351e-08 1.66351e-08 1.66351e-08 1.66351e-08 1.66351e-08 1.66351e-08 1.66351e-08 1.66351e-08 1.66351e-08 1.66351e-08 1.66351e-08 1.66351e-08 1.66351e-08 1.66351e-08 1.66351e-08 1.66351e-08 1.66351e-08 1.66351e-08 1.66351e-08 1.66351e-08 1.66351e-08 1.66351e-08 1.66351e-08 1.66351e-08 1.66351e-08 1.66351e-08 1.66351e-08 1.66351e-08 1.66351e-08 1.66351e-08 1.6635e-08 1.6635e-08 1.66349e-08 1.66348e-08 1.66346e-08 1.66344e-08 1.6634e-08 1.66334e-08 1.66326e-08 1.66313e-08 1.66296e-08 1.66272e-08 1.66238e-08 1.66191e-08 1.66126e-08 1.66039e-08 1.65922e-08 1.65766e-08 1.65561e-08 1.65295e-08 1.64952e-08 1.64514e-08 1.63962e-08 1.63272e-08 1.6242e-08 1.61377e-08 1.60115e-08 1.58601e-08 1.56807e-08 1.547e-08 1.52252e-08 1.49437e-08 1.46233e-08 1.42624e-08 1.38601e-08 1.34162e-08 1.29314e-08 1.24076e-08 1.18472e-08 1.1254e-08 1.06325e-08 9.98813e-09 9.32681e-09 8.65514e-09 7.97998e-09 7.3083e-09 6.64698e-09 6.00256e-09 5.38108e-09 4.7879e-09 4.22755e-09 3.70368e-09 3.21895e-09 2.77505e-09 2.37273e-09 2.01184e-09 1.69146e-09 1.40995e-09 1.16515e-09 9.5445e-10 7.74972e-10 6.23656e-10 4.97394e-10 3.93118e-10 3.07884e-10 2.38928e-10 1.83713e-10 1.39955e-10 1.0563e-10 7.89813e-11 5.85031e-11 4.29278e-11 3.12023e-11 2.24653e-11 1.60215e-11 1.13174e-11 7.91835e-12 5.48728e-12 3.76621e-12 2.56019e-12 1.72365e-12 1.14929e-12 7.58949e-13 4.9635e-13 3.21479e-13 2.06206e-13 1.30988e-13 8.24022e-14 5.13359e-14 3.1672e-14 1.93509e-14 1.17083e-14 7.01543e-15 4.16275e-15 2.44608e-15 1.4234e-15 8.20246e-16 4.68086e-16 2.64527e-16 1.48038e-16 8.20384e-17 4.50138e-17 2.44417e-17 1.31074e-17 6.89005e-18 3.44516e-18 1.4232e-18 0 
0 2.55598e-18 6.18427e-18 1.23597e-17 2.34948e-17 4.37769e-17 8.05595e-17 1.46706e-16 2.64527e-16 4.72323e-16 8.35166e-16 1.46243e-15 2.53598e-15 4.35499e-15 7.40624e-15 1.24732e-14 2.08033e-14 3.43604e-14 5.62029e-14 9.10406e-14 1.46046e-13 2.3202e-13 3.65043e-13 5.68788e-13 8.77702e-13 1.34134e-12 2.03016e-12 3.04317e-12 4.51786e-12 6.64288e-12 9.67396e-12 1.39535e-11 1.99344e-11 2.82081e-11 3.95369e-11 5.48912e-11 7.54892e-11 1.0284e-10 1.38787e-10 1.85551e-10 2.45763e-10 3.22499e-10 4.19296e-10 5.40146e-10 6.89485e-10 8.72137e-10 1.09324e-09 1.35816e-09 1.67232e-09 2.04103e-09 2.46935e-09 2.9618e-09 3.52216e-09 4.15326e-09 4.85672e-09 5.63278e-09 6.48012e-09 7.3958e-09 8.37513e-09 9.41178e-09 1.04978e-08 1.16239e-08 1.27794e-08 1.39531e-08 1.51328e-08 1.63064e-08 1.7462e-08 1.8588e-08 1.96741e-08 2.07107e-08 2.16901e-08 2.26057e-08 2.34531e-08 2.42291e-08 2.49326e-08 2.55637e-08 2.61241e-08 2.66165e-08 2.70448e-08 2.74135e-08 2.77277e-08 2.79926e-08 2.82137e-08 2.83964e-08 2.85457e-08 2.86666e-08 2.87634e-08 2.88401e-08 2.89003e-08 2.89471e-08 2.8983e-08 2.90104e-08 2.9031e-08 2.90463e-08 2.90576e-08 2.90659e-08 2.90719e-08 2.90762e-08 2.90792e-08 2.90813e-08 2.90828e-08 2.90838e-08 2.90845e-08 2.9085e-08 2.90853e-08 2.90855e-08 2.90856e-08 2.90857e-08 2.90858e-08 2.90858e-08 2.90858e-08 2.90858e-08 2.90858e-08 2.90858e-08 2.90859e-08 2.90859e-08 2.90859e-08 2.90859e-08 2.90859e-08 2.90859e-08 2.90859e-08 2.90859e-08 2.90859e-08 2.90859e-08 2.90859e-08 2.90859e-08 2.90859e-08 2.90859e-08 2.90859e-08 2.90859e-08 2.90859e-08 2.90859e-08 2.90859e-08 2.90859e-08 2.90859e-08 2.90859e-08 2.90859e-08 2.90859e-08 2.90859e-08 2.90859e-08 2.90859e-08 2.90859e-08 2.90858e-08 2.90858e-08 2.90858e-08 2.90858e-08 2.90858e-08 2.90858e-08 2.90857e-08 2.90856e-08 2.90855e-08 2.90853e-08 2.9085e-08 2.90845e-08 2.90838e-08 2.90828e-08 2.90813e-08 2.90792e-08 2.90762e-08 2.90719e-08 2.90659e-08 2.90576e-08 2.90463e-08 2.9031e-08 2.90104e-08 2.8983e-08 2.89471e-08 2.89003e-08 2.88401e-08 2.87634e-08 2.86666e-08 2.85457e-08 2.83964e-08 2.82137e-08 2.79926e-08 2.77277e-08 2.74135e-08 2.70448e-08 2.66165e-08 2.61241e-08 2.55637e-08 2.49326e-08 2.42291e-08 2.34531e-08 2.26057e-08 2.16901e-08 2.07107e-08 1.96741e-08 1.8588e-08 1.7462e-08 1.63064e-08 1.51328e-08 1.39531e-08 1.27794e-08 1.16239e-08 1.04978e-08 9.41178e-09 8.37513e-09 7.3958e-09 6.48012e-09 5.63278e-09 4.85672e-09 4.15326e-09 3.52216e-09 2.9618e-09 2.46935e-09 2.04103e-09 1.67232e-09 1.35816e-09 1.09324e-09 8.72137e-10 6.89485e-10 5.40146e-10 4.19296e-10 3.22499e-10 2.45763e-10 1.85551e-10 1.38787e-10 1.0284e-10 7.54892e-11 5.48912e-11 3.95369e-11 2.82081e-11 1.99344e-11 1.39535e-11 9.67396e-12 6.64288e-12 4.51786e-12 3.04317e-12 2.03016e-12 1.34134e-12 8.77702e-13 5.68788e-13 3.65043e-13 2.3202e-13 1.46046e-13 9.10406e-14 5.62029e-14 3.43604e-14 2.08033e-14 1.24732e-14 7.40624e-15 4.35499e-15 2.53598e-15 1.46243e-15 8.35166e-16 4.72323e-16 2.64527e-16 1.46706e-16 8.05595e-17 4.37769e-17 2.34948e-17 1.23597e-17 6.18427e-18 2.55598e-18 0 