<?xml version="1.0"?>
<VTKFile type="ImageData" version="0.1" byte_order="LittleEndian">
  <ImageData WholeExtent="0 255 0 255 0 0" Origin="0 0 0" Spacing="1 1 1">
  <Piece Extent="0 255 0 255 0 0">
    <PointData>
      <DataArray type="Float32" Name="scalar_data" format="ascii" >0 0 0 0 0 0 0 0 0 0 0 0 0 0 0 0 0 0 0 0 0 0 0 0 0 0 0 0 0 0 0 0 0 0 0 0 0 0 0 0 0 0 0 0 0 0 0 0 0 0 0 0 0 0 0 0 0 0 0 0 0 0 0 0 0 0 0 0 0 0 0 0 0 0 0 0 0 0 0 0 0 0 0 0 0 0 0 0 0 0 0 0 0 0 0 0 0 0 0 0 0 0 0 0 0 0 0 0 0 0 0 0 0 0 0 0 0 0 0 0 0 0 0 0 0 0 0 0 0 0 0 0 0 0 0 0 0 0 0 0 0 0 0 0 0 0 0 0 0 0 0 0 0 0 0 0 0 0 0 0 0 0 0 0 0 0 0 0 0 0 0 0 0 0 0 0 0 0 0 0 0 0 0 0 0 0 0 0 0 0 0 0 0 0 0 0 0 0 0 0 0 0 0 0 0 0 0 0 0 0 0 0 0 0 0 0 0 0 0 0 0 0 0 0 0 0 0 0 0 0 0 0 0 0 0 0 0 0 0 0 0 0 0 0 0 0 0 0 0 0 0 0 0 0 0 0 
0 5.36877e-33 1.86222e-32 5.84629e-32 1.79018e-31 5.38236e-31 1.58995e-30 4.61484e-30 1.31611e-29 3.68802e-29 1.01545e-28 2.74718e-28 7.3026e-28 1.90735e-27 4.89491e-27 1.23429e-26 3.05809e-26 7.44457e-26 1.78067e-25 4.18486e-25 9.66344e-25 2.19247e-24 4.88748e-24 1.0705e-23 2.30376e-23 4.8712e-23 1.01201e-22 2.06577e-22 4.14315e-22 8.16457e-22 1.58086e-21 3.00754e-21 5.62204e-21 1.03264e-20 1.86371e-20 3.30517e-20 5.75977e-20 9.86332e-20 1.65982e-19 2.74495e-19 4.46128e-19 7.12619e-19 1.11879e-18 1.72649e-18 2.61895e-18 3.90546e-18 5.72579e-18 8.25387e-18 1.17e-17 1.63105e-17 2.23648e-17 3.01674e-17 4.00367e-17 5.22883e-17 6.72146e-17 8.50615e-17 1.06003e-16 1.3012e-16 1.57374e-16 1.87601e-16 2.20501e-16 2.55641e-16 2.92475e-16 3.30365e-16 3.68612e-16 4.06501e-16 4.43335e-16 4.78476e-16 5.11375e-16 5.41603e-16 5.68857e-16 5.92973e-16 6.13915e-16 6.31762e-16 6.46688e-16 6.5894e-16 6.68809e-16 6.76612e-16 6.82666e-16 6.87277e-16 6.90723e-16 6.93251e-16 6.95071e-16 6.96358e-16 6.9725e-16 6.97858e-16 6.98264e-16 6.9853e-16 6.98702e-16 6.98811e-16 6.98878e-16 6.98919e-16 6.98944e-16 6.98958e-16 6.98966e-16 6.98971e-16 6.98974e-16 6.98975e-16 6.98976e-16 6.98976e-16 6.98976e-16 6.98977e-16 6.98977e-16 6.98977e-16 6.98977e-16 6.98977e-16 6.98977e-16 6.98977e-16 6.98977e-16 6.98977e-16 6.98977e-16 6.98977e-16 6.98977e-16 6.98977e-16 6.98977e-16 6.98977e-16 6.98977e-16 6.98977e-16 6.98977e-16 6.98977e-16 6.98977e-16 6.98977e-16 6.98977e-16 6.98977e-16 6.98977e-16 6.98977e-16 6.98977e-16 6.98977e-16 6.98977e-16 6.98977e-16 6.98977e-16 6.98977e-16 6.98977e-16 6.98977e-16 6.98977e-16 6.98977e-16 6.98977e-16 6.98977e-16 6.98977e-16 6.98977e-16 6.98977e-16 6.98977e-16 6.98977e-16 6.98977e-16 6.98977e-16 6.98977e-16 6.98977e-16 6.98977e-16 6.98977e-16 6.98977e-16 6.98977e-16 6.98977e-16 6.98977e-16 6.98977e-16 6.98977e-16 6.98976e-16 6.98976e-16 6.98976e-16 6.98975e-16 6.98974e-16 6.98971e-16 6.98966e-16 6.98958e-16 6.98944e-16 6.98919e-16 6.98878e-16 6.98811e-16 6.98702e-16 6.9853e-16 6.98264e-16 6.97858e-16 6.9725e-16 6.96358e-16 6.95071e-16 6.93251e-16 6.90723e-16 6.87277e-16 6.82666e-16 6.76612e-16 6.68809e-16 6.5894e-16 6.46688e-16 6.31762e-16 6.13915e-16 5.92973e-16 5.68857e-16 5.41603e-16 5.11375e-16 4.78476e-16 4.43335e-16 4.06501e-16 3.68612e-16 3.30365e-16 2.92475e-16 2.55641e-16 2.20501e-16 1.87601e-16 1.57374e-16 1.3012e-16 1.06003e-16 8.50615e-17 6.72146e-17 5.22883e-17 4.00367e-17 3.01674e-17 2.23648e-17 1.63105e-17 1.17e-17 8.25387e-18 5.72579e-18 3.90546e-18 2.61895e-18 1.72649e-18 1.11879e-18 7.12619e-19 4.46128e-19 2.74495e-19 1.65982e-19 9.86332e-20 5.75977e-20 3.30517e-20 1.86371e-20 1.03264e-20 5.62204e-21 3.00754e-21 1.58086e-21 8.16457e-22 4.14315e-22 2.06577e-22 1.01201e-22 4.8712e-23 2.30376e-23 1.0705e-23 4.88748e-24 2.19247e-24 9.66344e-25 4.18486e-25 1.78067e-25 7.44457e-26 3.05809e-26 1.23429e-26 4.89491e-27 1.90735e-27 7.3026e-28 2.74718e-28 1.01545e-28 3.68802e-29 1.31611e-29 4.61484e-30 1.58995e-30 5.38236e-31 1.79018e-31 5.84629e-32 1.86222e-32 5.36877e-33 0 
0 1.86222e-32 6.43884e-32 2.01402e-31 6.14434e-31 1.84066e-30 5.41799e-30 1.5671e-29 4.45399e-29 1.24394e-28 3.41385e-28 9.20626e-28 2.43958e-27 6.35244e-27 1.62538e-26 4.08658e-26 1.00961e-25 2.45092e-25 5.84644e-25 1.37036e-24 3.15617e-24 7.14273e-24 1.58835e-23 3.4706e-23 7.45144e-23 1.572e-22 3.25865e-22 6.63746e-22 1.32844e-21 2.61255e-21 5.04857e-21 9.58645e-21 1.7887e-20 3.27955e-20 5.90872e-20 1.04612e-19 1.82009e-19 3.11198e-19 5.22907e-19 8.63519e-19 1.40151e-18 2.23573e-18 3.50559e-18 5.40317e-18 8.18672e-18 1.21949e-17 1.78602e-17 2.57205e-17 3.64252e-17 5.07345e-17 6.9509e-17 9.36868e-17 1.24247e-16 1.62159e-16 2.08322e-16 2.63486e-16 3.28187e-16 4.02663e-16 4.86801e-16 5.80086e-16 6.81593e-16 7.89993e-16 9.03601e-16 1.02045e-15 1.13841e-15 1.25526e-15 1.36887e-15 1.47727e-15 1.57877e-15 1.67206e-15 1.7562e-15 1.83067e-15 1.89537e-15 1.95054e-15 1.9967e-15 2.03461e-15 2.06517e-15 2.08935e-15 2.10813e-15 2.12244e-15 2.13314e-15 2.141e-15 2.14667e-15 2.15067e-15 2.15346e-15 2.15536e-15 2.15663e-15 2.15746e-15 2.158e-15 2.15834e-15 2.15855e-15 2.15868e-15 2.15876e-15 2.1588e-15 2.15883e-15 2.15884e-15 2.15885e-15 2.15886e-15 2.15886e-15 2.15886e-15 2.15886e-15 2.15886e-15 2.15886e-15 2.15886e-15 2.15886e-15 2.15886e-15 2.15886e-15 2.15886e-15 2.15886e-15 2.15886e-15 2.15886e-15 2.15886e-15 2.15886e-15 2.15886e-15 2.15886e-15 2.15886e-15 2.15886e-15 2.15886e-15 2.15886e-15 2.15886e-15 2.15886e-15 2.15886e-15 2.15886e-15 2.15886e-15 2.15886e-15 2.15886e-15 2.15886e-15 2.15886e-15 2.15886e-15 2.15886e-15 2.15886e-15 2.15886e-15 2.15886e-15 2.15886e-15 2.15886e-15 2.15886e-15 2.15886e-15 2.15886e-15 2.15886e-15 2.15886e-15 2.15886e-15 2.15886e-15 2.15886e-15 2.15886e-15 2.15886e-15 2.15886e-15 2.15886e-15 2.15886e-15 2.15886e-15 2.15886e-15 2.15886e-15 2.15886e-15 2.15886e-15 2.15886e-15 2.15886e-15 2.15886e-15 2.15886e-15 2.15886e-15 2.15886e-15 2.15885e-15 2.15884e-15 2.15883e-15 2.1588e-15 2.15876e-15 2.15868e-15 2.15855e-15 2.15834e-15 2.158e-15 2.15746e-15 2.15663e-15 2.15536e-15 2.15346e-15 2.15067e-15 2.14667e-15 2.141e-15 2.13314e-15 2.12244e-15 2.10813e-15 2.08935e-15 2.06517e-15 2.03461e-15 1.9967e-15 1.95054e-15 1.89537e-15 1.83067e-15 1.7562e-15 1.67206e-15 1.57877e-15 1.47727e-15 1.36887e-15 1.25526e-15 1.13841e-15 1.02045e-15 9.03601e-16 7.89993e-16 6.81593e-16 5.80086e-16 4.86801e-16 4.02663e-16 3.28187e-16 2.63486e-16 2.08322e-16 1.62159e-16 1.24247e-16 9.36868e-17 6.9509e-17 5.07345e-17 3.64252e-17 2.57205e-17 1.78602e-17 1.21949e-17 8.18672e-18 5.40317e-18 3.50559e-18 2.23573e-18 1.40151e-18 8.63519e-19 5.22907e-19 3.11198e-19 1.82009e-19 1.04612e-19 5.90872e-20 3.27955e-20 1.7887e-20 9.58645e-21 5.04857e-21 2.61255e-21 1.32844e-21 6.63746e-22 3.25865e-22 1.572e-22 7.45144e-23 3.4706e-23 1.58835e-23 7.14273e-24 3.15617e-24 1.37036e-24 5.84644e-25 2.45092e-25 1.00961e-25 4.08658e-26 1.62538e-26 6.35244e-27 2.43958e-27 9.20626e-28 3.41385e-28 1.24394e-28 4.45399e-29 1.5671e-29 5.41799e-30 1.84066e-30 6.14434e-31 2.01402e-31 6.43884e-32 1.86222e-32 0 
0 5.84629e-32 2.01402e-31 6.27307e-31 1.9056e-30 5.68461e-30 1.66636e-29 4.80028e-29 1.35892e-28 3.78053e-28 1.03357e-27 2.77688e-27 7.33164e-27 1.90226e-26 4.85025e-26 1.21529e-25 2.99237e-25 7.2405e-25 1.72162e-24 4.02275e-24 9.23676e-24 2.08414e-23 4.6211e-23 1.00686e-22 2.15578e-22 4.5357e-22 9.3776e-22 1.90522e-21 3.80373e-21 7.46247e-21 1.43869e-20 2.72566e-20 5.07451e-20 9.28417e-20 1.66926e-19 2.9495e-19 5.12178e-19 8.7409e-19 1.46611e-18 2.41693e-18 3.91625e-18 6.23739e-18 9.76527e-18 1.50293e-17 2.27404e-17 3.38292e-17 4.94831e-17 7.11759e-17 1.00685e-16 1.4009e-16 1.91741e-16 2.58195e-16 3.4212e-16 4.46155e-16 5.72738e-16 7.23909e-16 9.0111e-16 1.10498e-15 1.33519e-15 1.59034e-15 1.8679e-15 2.16422e-15 2.47474e-15 2.79408e-15 3.11643e-15 3.43578e-15 3.74629e-15 4.04262e-15 4.32017e-15 4.57532e-15 4.80554e-15 5.00941e-15 5.18661e-15 5.33778e-15 5.46436e-15 5.5684e-15 5.65232e-15 5.71878e-15 5.77043e-15 5.80983e-15 5.83934e-15 5.86103e-15 5.87669e-15 5.88778e-15 5.89549e-15 5.90075e-15 5.90428e-15 5.9066e-15 5.9081e-15 5.90905e-15 5.90964e-15 5.91001e-15 5.91022e-15 5.91035e-15 5.91042e-15 5.91047e-15 5.91049e-15 5.9105e-15 5.91051e-15 5.91051e-15 5.91052e-15 5.91052e-15 5.91052e-15 5.91052e-15 5.91052e-15 5.91052e-15 5.91052e-15 5.91052e-15 5.91052e-15 5.91052e-15 5.91052e-15 5.91052e-15 5.91052e-15 5.91052e-15 5.91052e-15 5.91052e-15 5.91052e-15 5.91052e-15 5.91052e-15 5.91052e-15 5.91052e-15 5.91052e-15 5.91052e-15 5.91052e-15 5.91052e-15 5.91052e-15 5.91052e-15 5.91052e-15 5.91052e-15 5.91052e-15 5.91052e-15 5.91052e-15 5.91052e-15 5.91052e-15 5.91052e-15 5.91052e-15 5.91052e-15 5.91052e-15 5.91052e-15 5.91052e-15 5.91052e-15 5.91052e-15 5.91052e-15 5.91052e-15 5.91052e-15 5.91052e-15 5.91052e-15 5.91052e-15 5.91052e-15 5.91052e-15 5.91052e-15 5.91052e-15 5.91052e-15 5.91052e-15 5.91052e-15 5.91052e-15 5.91051e-15 5.91051e-15 5.9105e-15 5.91049e-15 5.91047e-15 5.91042e-15 5.91035e-15 5.91022e-15 5.91001e-15 5.90964e-15 5.90905e-15 5.9081e-15 5.9066e-15 5.90428e-15 5.90075e-15 5.89549e-15 5.88778e-15 5.87669e-15 5.86103e-15 5.83934e-15 5.80983e-15 5.77043e-15 5.71878e-15 5.65232e-15 5.5684e-15 5.46436e-15 5.33778e-15 5.18661e-15 5.00941e-15 4.80554e-15 4.57532e-15 4.32017e-15 4.04262e-15 3.74629e-15 3.43578e-15 3.11643e-15 2.79408e-15 2.47474e-15 2.16422e-15 1.8679e-15 1.59034e-15 1.33519e-15 1.10498e-15 9.0111e-16 7.23909e-16 5.72738e-16 4.46155e-16 3.4212e-16 2.58195e-16 1.91741e-16 1.4009e-16 1.00685e-16 7.11759e-17 4.94831e-17 3.38292e-17 2.27404e-17 1.50293e-17 9.76527e-18 6.23739e-18 3.91625e-18 2.41693e-18 1.46611e-18 8.7409e-19 5.12178e-19 2.9495e-19 1.66926e-19 9.28417e-20 5.07451e-20 2.72566e-20 1.43869e-20 7.46247e-21 3.80373e-21 1.90522e-21 9.3776e-22 4.5357e-22 2.15578e-22 1.00686e-22 4.6211e-23 2.08414e-23 9.23676e-24 4.02275e-24 1.72162e-24 7.2405e-25 2.99237e-25 1.21529e-25 4.85025e-26 1.90226e-26 7.33164e-27 2.77688e-27 1.03357e-27 3.78053e-28 1.35892e-28 4.80028e-29 1.66636e-29 5.68461e-30 1.9056e-30 6.27307e-31 2.01402e-31 5.84629e-32 0 
0 1.79018e-31 6.14434e-31 1.9056e-30 5.76377e-30 1.71208e-29 4.99777e-29 1.43381e-28 4.04271e-28 1.12026e-27 3.05089e-27 8.16577e-27 2.14797e-26 5.5529e-26 1.41081e-25 3.52265e-25 8.64421e-25 2.08464e-24 4.94067e-24 1.15076e-23 2.6341e-23 5.92543e-23 1.30993e-22 2.84589e-22 6.07612e-22 1.27489e-21 2.62879e-21 5.32695e-21 1.06082e-20 2.07607e-20 3.99291e-20 7.54714e-20 1.40193e-19 2.55934e-19 4.59189e-19 8.09704e-19 1.40327e-18 2.39029e-18 4.00186e-18 6.58558e-18 1.06528e-17 1.6939e-17 2.64784e-17 4.06911e-17 6.14808e-17 9.13365e-17 1.33429e-16 1.91688e-16 2.7085e-16 3.76441e-16 5.14707e-16 6.92434e-16 9.16691e-16 1.19446e-15 1.53218e-15 1.93523e-15 2.40741e-15 2.95036e-15 3.5632e-15 4.24216e-15 4.98049e-15 5.76858e-15 6.59425e-15 7.44332e-15 8.30035e-15 9.14942e-15 9.97509e-15 1.07632e-14 1.15015e-14 1.21805e-14 1.27933e-14 1.33363e-14 1.38084e-14 1.42115e-14 1.45492e-14 1.4827e-14 1.50512e-14 1.5229e-14 1.53672e-14 1.54728e-14 1.5552e-14 1.56102e-14 1.56523e-14 1.56822e-14 1.5703e-14 1.57172e-14 1.57267e-14 1.5733e-14 1.57371e-14 1.57397e-14 1.57413e-14 1.57423e-14 1.57429e-14 1.57432e-14 1.57434e-14 1.57435e-14 1.57436e-14 1.57436e-14 1.57437e-14 1.57437e-14 1.57437e-14 1.57437e-14 1.57437e-14 1.57437e-14 1.57437e-14 1.57437e-14 1.57437e-14 1.57437e-14 1.57437e-14 1.57437e-14 1.57437e-14 1.57437e-14 1.57437e-14 1.57437e-14 1.57437e-14 1.57437e-14 1.57437e-14 1.57437e-14 1.57437e-14 1.57437e-14 1.57437e-14 1.57437e-14 1.57437e-14 1.57437e-14 1.57437e-14 1.57437e-14 1.57437e-14 1.57437e-14 1.57437e-14 1.57437e-14 1.57437e-14 1.57437e-14 1.57437e-14 1.57437e-14 1.57437e-14 1.57437e-14 1.57437e-14 1.57437e-14 1.57437e-14 1.57437e-14 1.57437e-14 1.57437e-14 1.57437e-14 1.57437e-14 1.57437e-14 1.57437e-14 1.57437e-14 1.57437e-14 1.57437e-14 1.57437e-14 1.57437e-14 1.57437e-14 1.57437e-14 1.57437e-14 1.57437e-14 1.57437e-14 1.57437e-14 1.57437e-14 1.57436e-14 1.57436e-14 1.57435e-14 1.57434e-14 1.57432e-14 1.57429e-14 1.57423e-14 1.57413e-14 1.57397e-14 1.57371e-14 1.5733e-14 1.57267e-14 1.57172e-14 1.5703e-14 1.56822e-14 1.56523e-14 1.56102e-14 1.5552e-14 1.54728e-14 1.53672e-14 1.5229e-14 1.50512e-14 1.4827e-14 1.45492e-14 1.42115e-14 1.38084e-14 1.33363e-14 1.27933e-14 1.21805e-14 1.15015e-14 1.07632e-14 9.97509e-15 9.14942e-15 8.30035e-15 7.44332e-15 6.59425e-15 5.76858e-15 4.98049e-15 4.24216e-15 3.5632e-15 2.95036e-15 2.40741e-15 1.93523e-15 1.53218e-15 1.19446e-15 9.16691e-16 6.92434e-16 5.14707e-16 3.76441e-16 2.7085e-16 1.91688e-16 1.33429e-16 9.13365e-17 6.14808e-17 4.06911e-17 2.64784e-17 1.6939e-17 1.06528e-17 6.58558e-18 4.00186e-18 2.39029e-18 1.40327e-18 8.09704e-19 4.59189e-19 2.55934e-19 1.40193e-19 7.54714e-20 3.99291e-20 2.07607e-20 1.06082e-20 5.32695e-21 2.62879e-21 1.27489e-21 6.07612e-22 2.84589e-22 1.30993e-22 5.92543e-23 2.6341e-23 1.15076e-23 4.94067e-24 2.08464e-24 8.64421e-25 3.52265e-25 1.41081e-25 5.5529e-26 2.14797e-26 8.16577e-27 3.05089e-27 1.12026e-27 4.04271e-28 1.43381e-28 4.99777e-29 1.71208e-29 5.76377e-30 1.9056e-30 6.14434e-31 1.79018e-31 0 
0 5.38236e-31 1.84066e-30 5.68461e-30 1.71208e-29 5.06427e-29 1.47224e-28 4.20665e-28 1.18139e-27 3.26099e-27 8.84713e-27 2.35912e-26 6.18289e-26 1.59267e-25 4.03224e-25 1.00336e-24 2.45386e-24 5.89831e-24 1.39343e-23 3.23533e-23 7.38295e-23 1.65582e-22 3.64982e-22 7.90676e-22 1.68343e-21 3.52258e-21 7.24429e-21 1.4642e-20 2.90852e-20 5.67828e-20 1.08952e-19 2.05462e-19 3.80809e-19 6.93698e-19 1.24201e-18 2.18567e-18 3.78052e-18 6.42748e-18 1.07415e-17 1.76456e-17 2.84955e-17 4.52378e-17 7.06049e-17 1.08343e-16 1.63467e-16 2.42522e-16 3.53837e-16 5.0772e-16 7.16573e-16 9.9486e-16 1.35889e-15 1.82639e-15 2.41576e-15 3.14519e-15 4.03141e-15 5.08839e-15 6.32589e-15 7.74816e-15 9.35276e-15 1.11298e-14 1.30617e-14 1.51232e-14 1.72827e-14 1.95032e-14 2.17443e-14 2.39648e-14 2.61243e-14 2.81858e-14 3.01177e-14 3.18947e-14 3.34993e-14 3.49216e-14 3.61591e-14 3.72161e-14 3.81023e-14 3.88317e-14 3.94211e-14 3.98886e-14 4.02526e-14 4.05309e-14 4.07398e-14 4.08936e-14 4.10049e-14 4.1084e-14 4.11391e-14 4.11769e-14 4.12022e-14 4.1219e-14 4.12298e-14 4.12367e-14 4.1241e-14 4.12437e-14 4.12453e-14 4.12462e-14 4.12468e-14 4.12471e-14 4.12473e-14 4.12474e-14 4.12474e-14 4.12474e-14 4.12475e-14 4.12475e-14 4.12475e-14 4.12475e-14 4.12475e-14 4.12475e-14 4.12475e-14 4.12475e-14 4.12475e-14 4.12475e-14 4.12475e-14 4.12475e-14 4.12475e-14 4.12475e-14 4.12475e-14 4.12475e-14 4.12475e-14 4.12475e-14 4.12475e-14 4.12475e-14 4.12475e-14 4.12475e-14 4.12475e-14 4.12475e-14 4.12475e-14 4.12475e-14 4.12475e-14 4.12475e-14 4.12475e-14 4.12475e-14 4.12475e-14 4.12475e-14 4.12475e-14 4.12475e-14 4.12475e-14 4.12475e-14 4.12475e-14 4.12475e-14 4.12475e-14 4.12475e-14 4.12475e-14 4.12475e-14 4.12475e-14 4.12475e-14 4.12475e-14 4.12475e-14 4.12475e-14 4.12475e-14 4.12475e-14 4.12475e-14 4.12475e-14 4.12475e-14 4.12475e-14 4.12475e-14 4.12475e-14 4.12475e-14 4.12474e-14 4.12474e-14 4.12474e-14 4.12473e-14 4.12471e-14 4.12468e-14 4.12462e-14 4.12453e-14 4.12437e-14 4.1241e-14 4.12367e-14 4.12298e-14 4.1219e-14 4.12022e-14 4.11769e-14 4.11391e-14 4.1084e-14 4.10049e-14 4.08936e-14 4.07398e-14 4.05309e-14 4.02526e-14 3.98886e-14 3.94211e-14 3.88317e-14 3.81023e-14 3.72161e-14 3.61591e-14 3.49216e-14 3.34993e-14 3.18947e-14 3.01177e-14 2.81858e-14 2.61243e-14 2.39648e-14 2.17443e-14 1.95032e-14 1.72827e-14 1.51232e-14 1.30617e-14 1.11298e-14 9.35276e-15 7.74816e-15 6.32589e-15 5.08839e-15 4.03141e-15 3.14519e-15 2.41576e-15 1.82639e-15 1.35889e-15 9.9486e-16 7.16573e-16 5.0772e-16 3.53837e-16 2.42522e-16 1.63467e-16 1.08343e-16 7.06049e-17 4.52378e-17 2.84955e-17 1.76456e-17 1.07415e-17 6.42748e-18 3.78052e-18 2.18567e-18 1.24201e-18 6.93698e-19 3.80809e-19 2.05462e-19 1.08952e-19 5.67828e-20 2.90852e-20 1.4642e-20 7.24429e-21 3.52258e-21 1.68343e-21 7.90676e-22 3.64982e-22 1.65582e-22 7.38295e-23 3.23533e-23 1.39343e-23 5.89831e-24 2.45386e-24 1.00336e-24 4.03224e-25 1.59267e-25 6.18289e-26 2.35912e-26 8.84713e-27 3.26099e-27 1.18139e-27 4.20665e-28 1.47224e-28 5.06427e-29 1.71208e-29 5.68461e-30 1.84066e-30 5.38236e-31 0 
0 1.58995e-30 5.41799e-30 1.66636e-29 4.99777e-29 1.47224e-28 4.26266e-28 1.21315e-27 3.39375e-27 9.33204e-27 2.52234e-26 6.70127e-26 1.75e-25 4.492e-25 1.13335e-24 2.81066e-24 6.85121e-24 1.6415e-23 3.86567e-23 8.94782e-23 2.03572e-22 4.5522e-22 1.00053e-21 2.1614e-21 4.58927e-21 9.57746e-21 1.96452e-20 3.96059e-20 7.84809e-20 1.52851e-19 2.92602e-19 5.50544e-19 1.01816e-18 1.8508e-18 3.30692e-18 5.80789e-18 1.00266e-17 1.70153e-17 2.83849e-17 4.65494e-17 7.50476e-17 1.18953e-16 1.85374e-16 2.84043e-16 4.27968e-16 6.34104e-16 9.2399e-16 1.32426e-15 1.8669e-15 2.58919e-15 3.53309e-15 4.74415e-15 6.26965e-15 8.15617e-15 1.04466e-14 1.31765e-14 1.63709e-14 2.00403e-14 2.41784e-14 2.87594e-14 3.37379e-14 3.90495e-14 4.46124e-14 5.03318e-14 5.61043e-14 6.18237e-14 6.73866e-14 7.26981e-14 7.76767e-14 8.22577e-14 8.63957e-14 9.00652e-14 9.32595e-14 9.59895e-14 9.82799e-14 1.00166e-13 1.01692e-13 1.02903e-13 1.03847e-13 1.04569e-13 1.05112e-13 1.05512e-13 1.05802e-13 1.06008e-13 1.06152e-13 1.06251e-13 1.06317e-13 1.06361e-13 1.0639e-13 1.06408e-13 1.06419e-13 1.06426e-13 1.0643e-13 1.06433e-13 1.06434e-13 1.06435e-13 1.06436e-13 1.06436e-13 1.06436e-13 1.06436e-13 1.06436e-13 1.06436e-13 1.06436e-13 1.06436e-13 1.06436e-13 1.06436e-13 1.06436e-13 1.06436e-13 1.06436e-13 1.06436e-13 1.06436e-13 1.06436e-13 1.06436e-13 1.06436e-13 1.06436e-13 1.06436e-13 1.06436e-13 1.06436e-13 1.06436e-13 1.06436e-13 1.06436e-13 1.06436e-13 1.06436e-13 1.06436e-13 1.06436e-13 1.06436e-13 1.06436e-13 1.06436e-13 1.06436e-13 1.06436e-13 1.06436e-13 1.06436e-13 1.06436e-13 1.06436e-13 1.06436e-13 1.06436e-13 1.06436e-13 1.06436e-13 1.06436e-13 1.06436e-13 1.06436e-13 1.06436e-13 1.06436e-13 1.06436e-13 1.06436e-13 1.06436e-13 1.06436e-13 1.06436e-13 1.06436e-13 1.06436e-13 1.06436e-13 1.06436e-13 1.06436e-13 1.06436e-13 1.06436e-13 1.06436e-13 1.06436e-13 1.06436e-13 1.06436e-13 1.06436e-13 1.06435e-13 1.06434e-13 1.06433e-13 1.0643e-13 1.06426e-13 1.06419e-13 1.06408e-13 1.0639e-13 1.06361e-13 1.06317e-13 1.06251e-13 1.06152e-13 1.06008e-13 1.05802e-13 1.05512e-13 1.05112e-13 1.04569e-13 1.03847e-13 1.02903e-13 1.01692e-13 1.00166e-13 9.82799e-14 9.59895e-14 9.32595e-14 9.00652e-14 8.63957e-14 8.22577e-14 7.76767e-14 7.26981e-14 6.73866e-14 6.18237e-14 5.61043e-14 5.03318e-14 4.46124e-14 3.90495e-14 3.37379e-14 2.87594e-14 2.41784e-14 2.00403e-14 1.63709e-14 1.31765e-14 1.04466e-14 8.15617e-15 6.26965e-15 4.74415e-15 3.53309e-15 2.58919e-15 1.8669e-15 1.32426e-15 9.2399e-16 6.34104e-16 4.27968e-16 2.84043e-16 1.85374e-16 1.18953e-16 7.50476e-17 4.65494e-17 2.83849e-17 1.70153e-17 1.00266e-17 5.80789e-18 3.30692e-18 1.8508e-18 1.01816e-18 5.50544e-19 2.92602e-19 1.52851e-19 7.84809e-20 3.96059e-20 1.96452e-20 9.57746e-21 4.58927e-21 2.1614e-21 1.00053e-21 4.5522e-22 2.03572e-22 8.94782e-23 3.86567e-23 1.6415e-23 6.85121e-24 2.81066e-24 1.13335e-24 4.492e-25 1.75e-25 6.70127e-26 2.52234e-26 9.33204e-27 3.39375e-27 1.21315e-27 4.26266e-28 1.47224e-28 4.99777e-29 1.66636e-29 5.41799e-30 1.58995e-30 0 
0 4.61484e-30 1.5671e-29 4.80028e-29 1.43381e-28 4.20665e-28 1.21315e-27 3.43918e-27 9.58431e-27 2.62561e-26 7.07067e-26 1.87176e-25 4.87078e-25 1.24595e-24 3.13297e-24 7.74391e-24 1.88153e-23 4.49374e-23 1.05498e-22 2.43457e-22 5.52249e-22 1.23135e-21 2.69875e-21 5.81399e-21 1.23116e-20 2.56262e-20 5.24302e-20 1.05441e-19 2.08431e-19 4.04992e-19 7.73507e-19 1.45217e-18 2.67985e-18 4.86125e-18 8.66835e-18 1.51945e-17 2.61819e-17 4.43504e-17 7.38561e-17 1.20915e-16 1.94626e-16 3.08009e-16 4.79281e-16 7.33345e-16 1.10343e-15 1.6328e-15 2.37632e-15 3.40176e-15 4.79042e-15 6.63689e-15 9.04758e-15 1.21378e-14 1.60271e-14 2.08332e-14 2.66641e-14 3.36095e-14 4.1732e-14 5.10577e-14 6.15698e-14 7.32029e-14 8.58419e-14 9.93229e-14 1.1344e-13 1.27952e-13 1.42599e-13 1.57111e-13 1.71228e-13 1.84709e-13 1.97348e-13 2.08981e-13 2.19493e-13 2.28819e-13 2.36941e-13 2.43887e-13 2.49717e-13 2.54523e-13 2.58413e-13 2.61503e-13 2.63914e-13 2.6576e-13 2.67149e-13 2.68174e-13 2.68918e-13 2.69447e-13 2.69817e-13 2.70071e-13 2.70243e-13 2.70356e-13 2.7043e-13 2.70477e-13 2.70506e-13 2.70524e-13 2.70535e-13 2.70542e-13 2.70546e-13 2.70548e-13 2.70549e-13 2.7055e-13 2.7055e-13 2.7055e-13 2.7055e-13 2.70551e-13 2.70551e-13 2.70551e-13 2.70551e-13 2.70551e-13 2.70551e-13 2.70551e-13 2.70551e-13 2.70551e-13 2.70551e-13 2.70551e-13 2.70551e-13 2.70551e-13 2.70551e-13 2.70551e-13 2.70551e-13 2.70551e-13 2.70551e-13 2.70551e-13 2.70551e-13 2.70551e-13 2.70551e-13 2.70551e-13 2.70551e-13 2.70551e-13 2.70551e-13 2.70551e-13 2.70551e-13 2.70551e-13 2.70551e-13 2.70551e-13 2.70551e-13 2.70551e-13 2.70551e-13 2.70551e-13 2.70551e-13 2.70551e-13 2.70551e-13 2.70551e-13 2.70551e-13 2.70551e-13 2.70551e-13 2.70551e-13 2.70551e-13 2.70551e-13 2.70551e-13 2.70551e-13 2.70551e-13 2.70551e-13 2.70551e-13 2.70551e-13 2.70551e-13 2.70551e-13 2.70551e-13 2.7055e-13 2.7055e-13 2.7055e-13 2.7055e-13 2.70549e-13 2.70548e-13 2.70546e-13 2.70542e-13 2.70535e-13 2.70524e-13 2.70506e-13 2.70477e-13 2.7043e-13 2.70356e-13 2.70243e-13 2.70071e-13 2.69817e-13 2.69447e-13 2.68918e-13 2.68174e-13 2.67149e-13 2.6576e-13 2.63914e-13 2.61503e-13 2.58413e-13 2.54523e-13 2.49717e-13 2.43887e-13 2.36941e-13 2.28819e-13 2.19493e-13 2.08981e-13 1.97348e-13 1.84709e-13 1.71228e-13 1.57111e-13 1.42599e-13 1.27952e-13 1.1344e-13 9.93229e-14 8.58419e-14 7.32029e-14 6.15698e-14 5.10577e-14 4.1732e-14 3.36095e-14 2.66641e-14 2.08332e-14 1.60271e-14 1.21378e-14 9.04758e-15 6.63689e-15 4.79042e-15 3.40176e-15 2.37632e-15 1.6328e-15 1.10343e-15 7.33345e-16 4.79281e-16 3.08009e-16 1.94626e-16 1.20915e-16 7.38561e-17 4.43504e-17 2.61819e-17 1.51945e-17 8.66835e-18 4.86125e-18 2.67985e-18 1.45217e-18 7.73507e-19 4.04992e-19 2.08431e-19 1.05441e-19 5.24302e-20 2.56262e-20 1.23116e-20 5.81399e-21 2.69875e-21 1.23135e-21 5.52249e-22 2.43457e-22 1.05498e-22 4.49374e-23 1.88153e-23 7.74391e-24 3.13297e-24 1.24595e-24 4.87078e-25 1.87176e-25 7.07067e-26 2.62561e-26 9.58431e-27 3.43918e-27 1.21315e-27 4.20665e-28 1.43381e-28 4.80028e-29 1.5671e-29 4.61484e-30 0 
0 1.31611e-29 4.45399e-29 1.35892e-28 4.04271e-28 1.18139e-27 3.39375e-27 9.58431e-27 2.66096e-26 7.26292e-26 1.94884e-25 5.14084e-25 1.33315e-24 3.39867e-24 8.5177e-24 2.09853e-23 5.0826e-23 1.21013e-22 2.83235e-22 6.51677e-22 1.47395e-21 3.27717e-21 7.1627e-21 1.53891e-20 3.2502e-20 6.74783e-20 1.37713e-19 2.76275e-19 5.44838e-19 1.05621e-18 2.01278e-18 3.77056e-18 6.94359e-18 1.257e-17 2.237e-17 3.91366e-17 6.73129e-17 1.1382e-16 1.89218e-16 3.09272e-16 4.97015e-16 7.85361e-16 1.22029e-15 1.86455e-15 2.80176e-15 4.14064e-15 6.01888e-15 8.60634e-15 1.21065e-14 1.67559e-14 2.28202e-14 3.05871e-14 4.03543e-14 5.24148e-14 6.7037e-14 8.44434e-14 1.04788e-13 1.28135e-13 1.54441e-13 1.83542e-13 2.1515e-13 2.48856e-13 2.84145e-13 3.2042e-13 3.5703e-13 3.93305e-13 4.28594e-13 4.623e-13 4.93908e-13 5.23009e-13 5.49315e-13 5.72662e-13 5.93007e-13 6.10413e-13 6.25036e-13 6.37096e-13 6.46863e-13 6.5463e-13 6.60694e-13 6.65344e-13 6.68844e-13 6.71431e-13 6.7331e-13 6.74649e-13 6.75586e-13 6.7623e-13 6.76665e-13 6.76953e-13 6.77141e-13 6.77261e-13 6.77337e-13 6.77383e-13 6.77411e-13 6.77428e-13 6.77438e-13 6.77443e-13 6.77447e-13 6.77448e-13 6.77449e-13 6.7745e-13 6.7745e-13 6.7745e-13 6.7745e-13 6.7745e-13 6.7745e-13 6.7745e-13 6.7745e-13 6.7745e-13 6.7745e-13 6.7745e-13 6.7745e-13 6.7745e-13 6.7745e-13 6.7745e-13 6.7745e-13 6.7745e-13 6.7745e-13 6.7745e-13 6.7745e-13 6.7745e-13 6.7745e-13 6.7745e-13 6.7745e-13 6.7745e-13 6.7745e-13 6.7745e-13 6.7745e-13 6.7745e-13 6.7745e-13 6.7745e-13 6.7745e-13 6.7745e-13 6.7745e-13 6.7745e-13 6.7745e-13 6.7745e-13 6.7745e-13 6.7745e-13 6.7745e-13 6.7745e-13 6.7745e-13 6.7745e-13 6.7745e-13 6.7745e-13 6.7745e-13 6.7745e-13 6.7745e-13 6.7745e-13 6.7745e-13 6.7745e-13 6.7745e-13 6.7745e-13 6.7745e-13 6.7745e-13 6.7745e-13 6.7745e-13 6.7745e-13 6.77449e-13 6.77448e-13 6.77447e-13 6.77443e-13 6.77438e-13 6.77428e-13 6.77411e-13 6.77383e-13 6.77337e-13 6.77261e-13 6.77141e-13 6.76953e-13 6.76665e-13 6.7623e-13 6.75586e-13 6.74649e-13 6.7331e-13 6.71431e-13 6.68844e-13 6.65344e-13 6.60694e-13 6.5463e-13 6.46863e-13 6.37096e-13 6.25036e-13 6.10413e-13 5.93007e-13 5.72662e-13 5.49315e-13 5.23009e-13 4.93908e-13 4.623e-13 4.28594e-13 3.93305e-13 3.5703e-13 3.2042e-13 2.84145e-13 2.48856e-13 2.1515e-13 1.83542e-13 1.54441e-13 1.28135e-13 1.04788e-13 8.44434e-14 6.7037e-14 5.24148e-14 4.03543e-14 3.05871e-14 2.28202e-14 1.67559e-14 1.21065e-14 8.60634e-15 6.01888e-15 4.14064e-15 2.80176e-15 1.86455e-15 1.22029e-15 7.85361e-16 4.97015e-16 3.09272e-16 1.89218e-16 1.1382e-16 6.73129e-17 3.91366e-17 2.237e-17 1.257e-17 6.94359e-18 3.77056e-18 2.01278e-18 1.05621e-18 5.44838e-19 2.76275e-19 1.37713e-19 6.74783e-20 3.2502e-20 1.53891e-20 7.1627e-21 3.27717e-21 1.47395e-21 6.51677e-22 2.83235e-22 1.21013e-22 5.0826e-23 2.09853e-23 8.5177e-24 3.39867e-24 1.33315e-24 5.14084e-25 1.94884e-25 7.26292e-26 2.66096e-26 9.58431e-27 3.39375e-27 1.18139e-27 4.04271e-28 1.35892e-28 4.45399e-29 1.31611e-29 0 
0 3.68802e-29 1.24394e-28 3.78053e-28 1.12026e-27 3.26099e-27 9.33204e-27 2.62561e-26 7.26292e-26 1.97524e-25 5.28141e-25 1.38836e-24 3.58818e-24 9.11719e-24 2.27751e-23 5.59332e-23 1.35047e-22 3.20558e-22 7.48044e-22 1.71611e-21 3.87044e-21 8.58158e-21 1.87053e-20 4.00822e-20 8.44355e-20 1.74858e-19 3.55983e-19 7.12458e-19 1.40176e-18 2.7113e-18 5.15549e-18 9.63727e-18 1.77106e-17 3.19975e-17 5.68335e-17 9.92449e-17 1.70387e-16 2.87607e-16 4.77321e-16 7.78904e-16 1.24979e-15 1.97191e-15 3.05956e-15 4.66848e-15 7.00592e-15 1.03409e-14 1.50139e-14 2.14442e-14 3.01335e-14 4.16644e-14 5.66904e-14 7.59182e-14 1.00079e-13 1.2989e-13 1.66009e-13 2.0898e-13 2.59176e-13 3.16753e-13 3.816e-13 4.53311e-13 5.31176e-13 6.14192e-13 7.01094e-13 7.90415e-13 8.80557e-13 9.69877e-13 1.05678e-12 1.1398e-12 1.21766e-12 1.28937e-12 1.35422e-12 1.4118e-12 1.46199e-12 1.50496e-12 1.54108e-12 1.57089e-12 1.59505e-12 1.61428e-12 1.62931e-12 1.64084e-12 1.64953e-12 1.65596e-12 1.66063e-12 1.66397e-12 1.6663e-12 1.66791e-12 1.669e-12 1.66972e-12 1.67019e-12 1.67049e-12 1.67068e-12 1.6708e-12 1.67087e-12 1.67091e-12 1.67094e-12 1.67095e-12 1.67096e-12 1.67097e-12 1.67097e-12 1.67097e-12 1.67097e-12 1.67097e-12 1.67097e-12 1.67097e-12 1.67097e-12 1.67097e-12 1.67097e-12 1.67097e-12 1.67097e-12 1.67097e-12 1.67097e-12 1.67097e-12 1.67097e-12 1.67097e-12 1.67097e-12 1.67097e-12 1.67097e-12 1.67097e-12 1.67097e-12 1.67097e-12 1.67097e-12 1.67097e-12 1.67097e-12 1.67097e-12 1.67097e-12 1.67097e-12 1.67097e-12 1.67097e-12 1.67097e-12 1.67097e-12 1.67097e-12 1.67097e-12 1.67097e-12 1.67097e-12 1.67097e-12 1.67097e-12 1.67097e-12 1.67097e-12 1.67097e-12 1.67097e-12 1.67097e-12 1.67097e-12 1.67097e-12 1.67097e-12 1.67097e-12 1.67097e-12 1.67097e-12 1.67097e-12 1.67097e-12 1.67097e-12 1.67097e-12 1.67097e-12 1.67097e-12 1.67097e-12 1.67097e-12 1.67097e-12 1.67097e-12 1.67097e-12 1.67097e-12 1.67096e-12 1.67095e-12 1.67094e-12 1.67091e-12 1.67087e-12 1.6708e-12 1.67068e-12 1.67049e-12 1.67019e-12 1.66972e-12 1.669e-12 1.66791e-12 1.6663e-12 1.66397e-12 1.66063e-12 1.65596e-12 1.64953e-12 1.64084e-12 1.62931e-12 1.61428e-12 1.59505e-12 1.57089e-12 1.54108e-12 1.50496e-12 1.46199e-12 1.4118e-12 1.35422e-12 1.28937e-12 1.21766e-12 1.1398e-12 1.05678e-12 9.69877e-13 8.80557e-13 7.90415e-13 7.01094e-13 6.14192e-13 5.31176e-13 4.53311e-13 3.816e-13 3.16753e-13 2.59176e-13 2.0898e-13 1.66009e-13 1.2989e-13 1.00079e-13 7.59182e-14 5.66904e-14 4.16644e-14 3.01335e-14 2.14442e-14 1.50139e-14 1.03409e-14 7.00592e-15 4.66848e-15 3.05956e-15 1.97191e-15 1.24979e-15 7.78904e-16 4.77321e-16 2.87607e-16 1.70387e-16 9.92449e-17 5.68335e-17 3.19975e-17 1.77106e-17 9.63727e-18 5.15549e-18 2.7113e-18 1.40176e-18 7.12458e-19 3.55983e-19 1.74858e-19 8.44355e-20 4.00822e-20 1.87053e-20 8.58158e-21 3.87044e-21 1.71611e-21 7.48044e-22 3.20558e-22 1.35047e-22 5.59332e-23 2.27751e-23 9.11719e-24 3.58818e-24 1.38836e-24 5.28141e-25 1.97524e-25 7.26292e-26 2.62561e-26 9.33204e-27 3.26099e-27 1.12026e-27 3.78053e-28 1.24394e-28 3.68802e-29 0 