<?xml version="1.0"?>
<VTKFile type="ImageData" version="0.1" byte_order="LittleEndian">
  <ImageData WholeExtent="0 255 0 255 0 0" Origin="0 0 0" Spacing="1 1 1">
  <Piece Extent="0 255 0 255 0 0">
    <PointData>
      <DataArray type="Float32" Name="scalar_data" format="ascii" >0 0 0 0 0 0 0 0 0 0 0 0 0 0 0 0 0 0 0 0 0 0 0 0 0 0 0 0 0 0 0 0 0 0 0 0 0 0 0 0 0 0 0 0 0 0 0 0 0 0 0 0 0 0 0 0 0 0 0 0 0 0 0 0 0 0 0 0 0 0 0 0 0 0 0 0 0 0 0 0 0 0 0 0 0 0 0 0 0 0 0 0 0 0 0 0 0 0 0 0 0 0 0 0 0 0 0 0 0 0 0 0 0 0 0 0 0 0 0 0 0 0 0 0 0 0 0 0 0 0 0 0 0 0 0 0 0 0 0 0 0 0 0 0 0 0 0 0 0 0 0 0 0 0 0 0 0 0 0 0 0 0 0 0 0 0 0 0 0 0 0 0 0 0 0 0 0 0 0 0 0 0 0 0 0 0 0 0 0 0 0 0 0 0 0 0 0 0 0 0 0 0 0 0 0 0 0 0 0 0 0 0 0 0 0 0 0 0 0 0 0 0 0 0 0 0 0 0 0 0 0 0 0 0 0 0 0 0 0 0 0 0 0 0 0 0 0 0 0 0 0 0 0 0 0 0 
0 1.94562e-14 4.21504e-14 7.17716e-14 1.12959e-13 1.71906e-13 2.57122e-13 3.80438e-13 5.58321e-13 8.13636e-13 1.17796e-12 1.69461e-12 2.42265e-12 3.44199e-12 4.86001e-12 6.8199e-12 9.51121e-12 1.3183e-11 1.81601e-11 2.48628e-11 3.38309e-11 4.57524e-11 6.1497e-11 8.2156e-11 1.09087e-10 1.43968e-10 1.88849e-10 2.46226e-10 3.19098e-10 4.11049e-10 5.26321e-10 6.69887e-10 8.47528e-10 1.0659e-09 1.3326e-09 1.6562e-09 2.04627e-09 2.51341e-09 3.06921e-09 3.72616e-09 4.49762e-09 5.39763e-09 6.44077e-09 7.64191e-09 9.01594e-09 1.05775e-08 1.23406e-08 1.43181e-08 1.65219e-08 1.89615e-08 2.16448e-08 2.45765e-08 2.7759e-08 3.11909e-08 3.48678e-08 3.87811e-08 4.29191e-08 4.72658e-08 5.1802e-08 5.6505e-08 6.1349e-08 6.63056e-08 7.13442e-08 7.64327e-08 8.15378e-08 8.66263e-08 9.16649e-08 9.66215e-08 1.01465e-07 1.06168e-07 1.10705e-07 1.15051e-07 1.19189e-07 1.23103e-07 1.2678e-07 1.30212e-07 1.33394e-07 1.36326e-07 1.39009e-07 1.41449e-07 1.43652e-07 1.4563e-07 1.47393e-07 1.48955e-07 1.50329e-07 1.5153e-07 1.52573e-07 1.53473e-07 1.54244e-07 1.54901e-07 1.55457e-07 1.55924e-07 1.56314e-07 1.56638e-07 1.56905e-07 1.57123e-07 1.57301e-07 1.57444e-07 1.57559e-07 1.57651e-07 1.57724e-07 1.57782e-07 1.57827e-07 1.57861e-07 1.57888e-07 1.57909e-07 1.57925e-07 1.57937e-07 1.57946e-07 1.57952e-07 1.57957e-07 1.57961e-07 1.57964e-07 1.57966e-07 1.57967e-07 1.57968e-07 1.57969e-07 1.57969e-07 1.5797e-07 1.5797e-07 1.5797e-07 1.5797e-07 1.5797e-07 1.5797e-07 1.5797e-07 1.5797e-07 1.5797e-07 1.5797e-07 1.5797e-07 1.5797e-07 1.5797e-07 1.5797e-07 1.5797e-07 1.5797e-07 1.5797e-07 1.5797e-07 1.5797e-07 1.5797e-07 1.57969e-07 1.57969e-07 1.57968e-07 1.57967e-07 1.57966e-07 1.57964e-07 1.57961e-07 1.57957e-07 1.57952e-07 1.57946e-07 1.57937e-07 1.57925e-07 1.57909e-07 1.57888e-07 1.57861e-07 1.57827e-07 1.57782e-07 1.57724e-07 1.57651e-07 1.57559e-07 1.57444e-07 1.57301e-07 1.57123e-07 1.56905e-07 1.56638e-07 1.56314e-07 1.55924e-07 1.55457e-07 1.54901e-07 1.54244e-07 1.53473e-07 1.52573e-07 1.5153e-07 1.50329e-07 1.48955e-07 1.47393e-07 1.4563e-07 1.43652e-07 1.41449e-07 1.39009e-07 1.36326e-07 1.33394e-07 1.30212e-07 1.2678e-07 1.23103e-07 1.19189e-07 1.15051e-07 1.10705e-07 1.06168e-07 1.01465e-07 9.66215e-08 9.16649e-08 8.66263e-08 8.15378e-08 7.64327e-08 7.13442e-08 6.63056e-08 6.1349e-08 5.6505e-08 5.1802e-08 4.72658e-08 4.29191e-08 3.87811e-08 3.48678e-08 3.11909e-08 2.7759e-08 2.45765e-08 2.16448e-08 1.89615e-08 1.65219e-08 1.43181e-08 1.23406e-08 1.05775e-08 9.01594e-09 7.64191e-09 6.44077e-09 5.39763e-09 4.49762e-09 3.72616e-09 3.06921e-09 2.51341e-09 2.04627e-09 1.6562e-09 1.3326e-09 1.0659e-09 8.47528e-10 6.69887e-10 5.26321e-10 4.11049e-10 3.19098e-10 2.46226e-10 1.88849e-10 1.43968e-10 1.09087e-10 8.2156e-11 6.1497e-11 4.57524e-11 3.38309e-11 2.48628e-11 1.81601e-11 1.3183e-11 9.51121e-12 6.8199e-12 4.86001e-12 3.44199e-12 2.42265e-12 1.69461e-12 1.17796e-12 8.13636e-13 5.58321e-13 3.80438e-13 2.57122e-13 1.71906e-13 1.12959e-13 7.17716e-14 4.21504e-14 1.94562e-14 0 
0 4.21504e-14 9.13123e-14 1.55473e-13 2.44676e-13 3.72327e-13 5.56847e-13 8.23836e-13 1.20893e-12 1.76161e-12 2.55018e-12 3.66838e-12 5.24396e-12 7.44977e-12 1.05181e-11 1.47585e-11 2.0581e-11 2.85241e-11 3.92901e-11 5.37877e-11 7.31839e-11 9.89658e-11 1.33014e-10 1.77686e-10 2.35917e-10 3.11331e-10 4.08363e-10 5.324e-10 6.89927e-10 8.88687e-10 1.13784e-09 1.44813e-09 1.83206e-09 2.30399e-09 2.88033e-09 3.57959e-09 4.42246e-09 5.43183e-09 6.63268e-09 8.05205e-09 9.71875e-09 1.16631e-08 1.39166e-08 1.65113e-08 1.94794e-08 2.28525e-08 2.66608e-08 3.09323e-08 3.56921e-08 4.09614e-08 4.67566e-08 5.30885e-08 5.99617e-08 6.73736e-08 7.53142e-08 8.37655e-08 9.27017e-08 1.02089e-07 1.11885e-07 1.22041e-07 1.32501e-07 1.43205e-07 1.54086e-07 1.65074e-07 1.76099e-07 1.87087e-07 1.97968e-07 2.08671e-07 2.19132e-07 2.29288e-07 2.39084e-07 2.48471e-07 2.57407e-07 2.65858e-07 2.73799e-07 2.81211e-07 2.88084e-07 2.94416e-07 3.00211e-07 3.0548e-07 3.1024e-07 3.14512e-07 3.1832e-07 3.21693e-07 3.24661e-07 3.27256e-07 3.29509e-07 3.31454e-07 3.33121e-07 3.3454e-07 3.35741e-07 3.3675e-07 3.37593e-07 3.38292e-07 3.38869e-07 3.39341e-07 3.39724e-07 3.40035e-07 3.40284e-07 3.40483e-07 3.4064e-07 3.40764e-07 3.40861e-07 3.40937e-07 3.40995e-07 3.4104e-07 3.41074e-07 3.41099e-07 3.41119e-07 3.41133e-07 3.41144e-07 3.41152e-07 3.41158e-07 3.41162e-07 3.41165e-07 3.41167e-07 3.41169e-07 3.4117e-07 3.41171e-07 3.41171e-07 3.41172e-07 3.41172e-07 3.41172e-07 3.41172e-07 3.41172e-07 3.41172e-07 3.41173e-07 3.41173e-07 3.41173e-07 3.41173e-07 3.41172e-07 3.41172e-07 3.41172e-07 3.41172e-07 3.41172e-07 3.41172e-07 3.41171e-07 3.41171e-07 3.4117e-07 3.41169e-07 3.41167e-07 3.41165e-07 3.41162e-07 3.41158e-07 3.41152e-07 3.41144e-07 3.41133e-07 3.41119e-07 3.41099e-07 3.41074e-07 3.4104e-07 3.40995e-07 3.40937e-07 3.40861e-07 3.40764e-07 3.4064e-07 3.40483e-07 3.40284e-07 3.40035e-07 3.39724e-07 3.39341e-07 3.38869e-07 3.38292e-07 3.37593e-07 3.3675e-07 3.35741e-07 3.3454e-07 3.33121e-07 3.31454e-07 3.29509e-07 3.27256e-07 3.24661e-07 3.21693e-07 3.1832e-07 3.14512e-07 3.1024e-07 3.0548e-07 3.00211e-07 2.94416e-07 2.88084e-07 2.81211e-07 2.73799e-07 2.65858e-07 2.57407e-07 2.48471e-07 2.39084e-07 2.29288e-07 2.19132e-07 2.08671e-07 1.97968e-07 1.87087e-07 1.76099e-07 1.65074e-07 1.54086e-07 1.43205e-07 1.32501e-07 1.22041e-07 1.11885e-07 1.02089e-07 9.27017e-08 8.37655e-08 7.53142e-08 6.73736e-08 5.99617e-08 5.30885e-08 4.67566e-08 4.09614e-08 3.56921e-08 3.09323e-08 2.66608e-08 2.28525e-08 1.94794e-08 1.65113e-08 1.39166e-08 1.16631e-08 9.71875e-09 8.05205e-09 6.63268e-09 5.43183e-09 4.42246e-09 3.57959e-09 2.88033e-09 2.30399e-09 1.83206e-09 1.44813e-09 1.13784e-09 8.88687e-10 6.89927e-10 5.324e-10 4.08363e-10 3.11331e-10 2.35917e-10 1.77686e-10 1.33014e-10 9.89658e-11 7.31839e-11 5.37877e-11 3.92901e-11 2.85241e-11 2.0581e-11 1.47585e-11 1.05181e-11 7.44977e-12 5.24396e-12 3.66838e-12 2.55018e-12 1.76161e-12 1.20893e-12 8.23836e-13 5.56847e-13 3.72327e-13 2.44676e-13 1.55473e-13 9.13123e-14 4.21504e-14 0 
0 7.17716e-14 1.55473e-13 2.64691e-13 4.16512e-13 6.33733e-13 9.47677e-13 1.40187e-12 2.05689e-12 2.99681e-12 4.33773e-12 6.23892e-12 8.9174e-12 1.26668e-11 1.78816e-11 2.50877e-11 3.49811e-11 4.84762e-11 6.67653e-11 9.13908e-11 1.24334e-10 1.68117e-10 2.25932e-10 3.0178e-10 4.0064e-10 5.28659e-10 6.9336e-10 9.0388e-10 1.17122e-09 1.5085e-09 1.93126e-09 2.45772e-09 3.10906e-09 3.90964e-09 4.88726e-09 6.07331e-09 7.50285e-09 9.21464e-09 1.12511e-08 1.36579e-08 1.64839e-08 1.97806e-08 2.36012e-08 2.80001e-08 3.30317e-08 3.87496e-08 4.52049e-08 5.24452e-08 6.05128e-08 6.94436e-08 7.92655e-08 8.99966e-08 1.01645e-07 1.14205e-07 1.27662e-07 1.41983e-07 1.57126e-07 1.73032e-07 1.89632e-07 2.06841e-07 2.24566e-07 2.42702e-07 2.61139e-07 2.79758e-07 2.98438e-07 3.17056e-07 3.35493e-07 3.5363e-07 3.71354e-07 3.88564e-07 4.05163e-07 4.21069e-07 4.36212e-07 4.50534e-07 4.6399e-07 4.7655e-07 4.88199e-07 4.9893e-07 5.08751e-07 5.17682e-07 5.2575e-07 5.3299e-07 5.39446e-07 5.45163e-07 5.50195e-07 5.54594e-07 5.58415e-07 5.61711e-07 5.64537e-07 5.66944e-07 5.68981e-07 5.70692e-07 5.72122e-07 5.73308e-07 5.74286e-07 5.75086e-07 5.75737e-07 5.76264e-07 5.76687e-07 5.77024e-07 5.77291e-07 5.77502e-07 5.77667e-07 5.77795e-07 5.77893e-07 5.77969e-07 5.78027e-07 5.78071e-07 5.78104e-07 5.78128e-07 5.78147e-07 5.7816e-07 5.7817e-07 5.78177e-07 5.78182e-07 5.78186e-07 5.78189e-07 5.78191e-07 5.78192e-07 5.78193e-07 5.78194e-07 5.78194e-07 5.78195e-07 5.78195e-07 5.78195e-07 5.78195e-07 5.78195e-07 5.78195e-07 5.78195e-07 5.78195e-07 5.78195e-07 5.78195e-07 5.78195e-07 5.78195e-07 5.78194e-07 5.78194e-07 5.78193e-07 5.78192e-07 5.78191e-07 5.78189e-07 5.78186e-07 5.78182e-07 5.78177e-07 5.7817e-07 5.7816e-07 5.78147e-07 5.78128e-07 5.78104e-07 5.78071e-07 5.78027e-07 5.77969e-07 5.77893e-07 5.77795e-07 5.77667e-07 5.77502e-07 5.77291e-07 5.77024e-07 5.76687e-07 5.76264e-07 5.75737e-07 5.75086e-07 5.74286e-07 5.73308e-07 5.72122e-07 5.70692e-07 5.68981e-07 5.66944e-07 5.64537e-07 5.61711e-07 5.58415e-07 5.54594e-07 5.50195e-07 5.45163e-07 5.39446e-07 5.3299e-07 5.2575e-07 5.17682e-07 5.08751e-07 4.9893e-07 4.88199e-07 4.7655e-07 4.6399e-07 4.50534e-07 4.36212e-07 4.21069e-07 4.05163e-07 3.88564e-07 3.71354e-07 3.5363e-07 3.35493e-07 3.17056e-07 2.98438e-07 2.79758e-07 2.61139e-07 2.42702e-07 2.24566e-07 2.06841e-07 1.89632e-07 1.73032e-07 1.57126e-07 1.41983e-07 1.27662e-07 1.14205e-07 1.01645e-07 8.99966e-08 7.92655e-08 6.94436e-08 6.05128e-08 5.24452e-08 4.52049e-08 3.87496e-08 3.30317e-08 2.80001e-08 2.36012e-08 1.97806e-08 1.64839e-08 1.36579e-08 1.12511e-08 9.21464e-09 7.50285e-09 6.07331e-09 4.88726e-09 3.90964e-09 3.10906e-09 2.45772e-09 1.93126e-09 1.5085e-09 1.17122e-09 9.0388e-10 6.9336e-10 5.28659e-10 4.0064e-10 3.0178e-10 2.25932e-10 1.68117e-10 1.24334e-10 9.13908e-11 6.67653e-11 4.84762e-11 3.49811e-11 2.50877e-11 1.78816e-11 1.26668e-11 8.9174e-12 6.23892e-12 4.33773e-12 2.99681e-12 2.05689e-12 1.40187e-12 9.47677e-13 6.33733e-13 4.16512e-13 2.64691e-13 1.55473e-13 7.17716e-14 0 
0 1.12959e-13 2.44676e-13 4.16512e-13 6.55323e-13 9.96934e-13 1.49056e-12 2.20457e-12 3.2341e-12 4.71119e-12 6.81809e-12 9.80481e-12 1.4012e-11 1.99004e-11 2.80888e-11 3.94023e-11 5.49327e-11 7.6114e-11 1.04816e-10 1.43456e-10 1.95139e-10 2.63822e-10 3.54504e-10 4.73456e-10 6.28479e-10 8.29201e-10 1.08741e-09 1.41741e-09 1.83643e-09 2.36502e-09 3.02751e-09 3.85242e-09 4.87289e-09 6.12707e-09 7.65846e-09 9.51618e-09 1.17551e-08 1.44358e-08 1.76247e-08 2.13933e-08 2.58179e-08 3.09791e-08 3.69601e-08 4.38459e-08 5.17218e-08 6.06713e-08 7.07744e-08 8.21054e-08 9.47306e-08 1.08706e-07 1.24075e-07 1.40866e-07 1.59091e-07 1.78744e-07 1.99797e-07 2.22203e-07 2.45893e-07 2.70778e-07 2.96746e-07 3.23668e-07 3.51396e-07 3.79768e-07 4.08609e-07 4.37734e-07 4.66956e-07 4.96082e-07 5.24923e-07 5.53294e-07 5.81022e-07 6.07944e-07 6.33912e-07 6.58797e-07 6.82487e-07 7.04893e-07 7.25946e-07 7.45599e-07 7.63824e-07 7.80615e-07 7.95984e-07 8.0996e-07 8.22585e-07 8.33916e-07 8.44019e-07 8.52969e-07 8.60844e-07 8.6773e-07 8.73711e-07 8.78872e-07 8.83297e-07 8.87066e-07 8.90255e-07 8.92935e-07 8.95174e-07 8.97032e-07 8.98563e-07 8.99817e-07 9.00838e-07 9.01663e-07 9.02325e-07 9.02854e-07 9.03273e-07 9.03603e-07 9.03861e-07 9.04062e-07 9.04217e-07 9.04336e-07 9.04427e-07 9.04495e-07 9.04547e-07 9.04586e-07 9.04614e-07 9.04635e-07 9.04651e-07 9.04662e-07 9.04671e-07 9.04676e-07 9.04681e-07 9.04684e-07 9.04686e-07 9.04687e-07 9.04688e-07 9.04689e-07 9.04689e-07 9.0469e-07 9.0469e-07 9.0469e-07 9.0469e-07 9.0469e-07 9.0469e-07 9.0469e-07 9.0469e-07 9.0469e-07 9.0469e-07 9.04689e-07 9.04689e-07 9.04688e-07 9.04687e-07 9.04686e-07 9.04684e-07 9.04681e-07 9.04676e-07 9.04671e-07 9.04662e-07 9.04651e-07 9.04635e-07 9.04614e-07 9.04586e-07 9.04547e-07 9.04495e-07 9.04427e-07 9.04336e-07 9.04217e-07 9.04062e-07 9.03861e-07 9.03603e-07 9.03273e-07 9.02854e-07 9.02325e-07 9.01663e-07 9.00838e-07 8.99817e-07 8.98563e-07 8.97032e-07 8.95174e-07 8.92935e-07 8.90255e-07 8.87066e-07 8.83297e-07 8.78872e-07 8.73711e-07 8.6773e-07 8.60844e-07 8.52969e-07 8.44019e-07 8.33916e-07 8.22585e-07 8.0996e-07 7.95984e-07 7.80615e-07 7.63824e-07 7.45599e-07 7.25946e-07 7.04893e-07 6.82487e-07 6.58797e-07 6.33912e-07 6.07944e-07 5.81022e-07 5.53294e-07 5.24923e-07 4.96082e-07 4.66956e-07 4.37734e-07 4.08609e-07 3.79768e-07 3.51396e-07 3.23668e-07 2.96746e-07 2.70778e-07 2.45893e-07 2.22203e-07 1.99797e-07 1.78744e-07 1.59091e-07 1.40866e-07 1.24075e-07 1.08706e-07 9.47306e-08 8.21054e-08 7.07744e-08 6.06713e-08 5.17218e-08 4.38459e-08 3.69601e-08 3.09791e-08 2.58179e-08 2.13933e-08 1.76247e-08 1.44358e-08 1.17551e-08 9.51618e-09 7.65846e-09 6.12707e-09 4.87289e-09 3.85242e-09 3.02751e-09 2.36502e-09 1.83643e-09 1.41741e-09 1.08741e-09 8.29201e-10 6.28479e-10 4.73456e-10 3.54504e-10 2.63822e-10 1.95139e-10 1.43456e-10 1.04816e-10 7.6114e-11 5.49327e-11 3.94023e-11 2.80888e-11 1.99004e-11 1.4012e-11 9.80481e-12 6.81809e-12 4.71119e-12 3.2341e-12 2.20457e-12 1.49056e-12 9.96934e-13 6.55323e-13 4.16512e-13 2.44676e-13 1.12959e-13 0 
0 1.71906e-13 3.72327e-13 6.33733e-13 9.96934e-13 1.51636e-12 2.26676e-12 3.35195e-12 4.9164e-12 7.1605e-12 1.03609e-11 1.48968e-11 2.12852e-11 3.02248e-11 4.26541e-11 5.98243e-11 8.33903e-11 1.15526e-10 1.59064e-10 2.17669e-10 2.96046e-10 4.00186e-10 5.37662e-10 7.1797e-10 9.52922e-10 1.2571e-09 1.64833e-09 2.14829e-09 2.78303e-09 3.58366e-09 4.58697e-09 5.83613e-09 7.38124e-09 9.28003e-09 1.15983e-08 1.44102e-08 1.77988e-08 2.18558e-08 2.66813e-08 3.23835e-08 3.9078e-08 4.68861e-08 5.59338e-08 6.63496e-08 7.8262e-08 9.17975e-08 1.07077e-07 1.24212e-07 1.43303e-07 1.64435e-07 1.87674e-07 2.13061e-07 2.40615e-07 2.70326e-07 3.02153e-07 3.36025e-07 3.71837e-07 4.09454e-07 4.48707e-07 4.89401e-07 5.31314e-07 5.74198e-07 6.17792e-07 6.61816e-07 7.05985e-07 7.50009e-07 7.93602e-07 8.36487e-07 8.78399e-07 9.19094e-07 9.58347e-07 9.95964e-07 1.03178e-06 1.06565e-06 1.09747e-06 1.12719e-06 1.15474e-06 1.18013e-06 1.20337e-06 1.2245e-06 1.24359e-06 1.26072e-06 1.276e-06 1.28954e-06 1.30145e-06 1.31187e-06 1.32091e-06 1.32872e-06 1.33542e-06 1.34112e-06 1.34594e-06 1.35e-06 1.35339e-06 1.3562e-06 1.35852e-06 1.36042e-06 1.36196e-06 1.36321e-06 1.36422e-06 1.36502e-06 1.36565e-06 1.36615e-06 1.36654e-06 1.36685e-06 1.36708e-06 1.36726e-06 1.3674e-06 1.3675e-06 1.36758e-06 1.36764e-06 1.36769e-06 1.36772e-06 1.36774e-06 1.36776e-06 1.36777e-06 1.36778e-06 1.36779e-06 1.36779e-06 1.36779e-06 1.3678e-06 1.3678e-06 1.3678e-06 1.3678e-06 1.3678e-06 1.3678e-06 1.3678e-06 1.3678e-06 1.3678e-06 1.3678e-06 1.3678e-06 1.3678e-06 1.3678e-06 1.3678e-06 1.3678e-06 1.3678e-06 1.3678e-06 1.3678e-06 1.36779e-06 1.36779e-06 1.36779e-06 1.36778e-06 1.36777e-06 1.36776e-06 1.36774e-06 1.36772e-06 1.36769e-06 1.36764e-06 1.36758e-06 1.3675e-06 1.3674e-06 1.36726e-06 1.36708e-06 1.36685e-06 1.36654e-06 1.36615e-06 1.36565e-06 1.36502e-06 1.36422e-06 1.36321e-06 1.36196e-06 1.36042e-06 1.35852e-06 1.3562e-06 1.35339e-06 1.35e-06 1.34594e-06 1.34112e-06 1.33542e-06 1.32872e-06 1.32091e-06 1.31187e-06 1.30145e-06 1.28954e-06 1.276e-06 1.26072e-06 1.24359e-06 1.2245e-06 1.20337e-06 1.18013e-06 1.15474e-06 1.12719e-06 1.09747e-06 1.06565e-06 1.03178e-06 9.95964e-07 9.58347e-07 9.19094e-07 8.78399e-07 8.36487e-07 7.93602e-07 7.50009e-07 7.05985e-07 6.61816e-07 6.17792e-07 5.74198e-07 5.31314e-07 4.89401e-07 4.48707e-07 4.09454e-07 3.71837e-07 3.36025e-07 3.02153e-07 2.70326e-07 2.40615e-07 2.13061e-07 1.87674e-07 1.64435e-07 1.43303e-07 1.24212e-07 1.07077e-07 9.17975e-08 7.8262e-08 6.63496e-08 5.59338e-08 4.68861e-08 3.9078e-08 3.23835e-08 2.66813e-08 2.18558e-08 1.77988e-08 1.44102e-08 1.15983e-08 9.28003e-09 7.38124e-09 5.83613e-09 4.58697e-09 3.58366e-09 2.78303e-09 2.14829e-09 1.64833e-09 1.2571e-09 9.52922e-10 7.1797e-10 5.37662e-10 4.00186e-10 2.96046e-10 2.17669e-10 1.59064e-10 1.15526e-10 8.33903e-11 5.98243e-11 4.26541e-11 3.02248e-11 2.12852e-11 1.48968e-11 1.03609e-11 7.1605e-12 4.9164e-12 3.35195e-12 2.26676e-12 1.51636e-12 9.96934e-13 6.33733e-13 3.72327e-13 1.71906e-13 0 
0 2.57122e-13 5.56847e-13 9.47677e-13 1.49056e-12 2.26676e-12 3.38786e-12 5.00878e-12 7.34506e-12 1.06956e-11 1.5473e-11 2.22428e-11 3.17754e-11 4.51126e-11 6.36528e-11 8.926e-11 1.244e-10 1.7231e-10 2.37208e-10 3.24552e-10 4.41345e-10 5.96503e-10 8.01299e-10 1.06986e-09 1.41976e-09 1.87269e-09 2.45517e-09 3.19942e-09 4.14419e-09 5.33572e-09 6.82872e-09 8.68732e-09 1.0986e-08 1.38105e-08 1.72587e-08 2.14406e-08 2.64797e-08 3.25121e-08 3.96866e-08 4.81639e-08 5.81154e-08 6.97214e-08 8.31688e-08 9.86483e-08 1.16351e-07 1.36464e-07 1.59167e-07 1.84626e-07 2.12989e-07 2.44383e-07 2.78903e-07 3.16615e-07 3.57543e-07 4.01673e-07 4.48945e-07 4.99251e-07 5.52438e-07 6.08303e-07 6.66598e-07 7.27032e-07 7.89273e-07 8.52958e-07 9.17694e-07 9.8307e-07 1.04866e-06 1.11404e-06 1.17877e-06 1.24246e-06 1.3047e-06 1.36513e-06 1.42343e-06 1.47929e-06 1.53248e-06 1.58279e-06 1.63006e-06 1.67419e-06 1.71512e-06 1.75283e-06 1.78735e-06 1.81874e-06 1.8471e-06 1.87256e-06 1.89527e-06 1.91538e-06 1.93308e-06 1.94856e-06 1.96201e-06 1.97361e-06 1.98357e-06 1.99204e-06 1.99922e-06 2.00525e-06 2.01029e-06 2.01447e-06 2.01792e-06 2.02074e-06 2.02304e-06 2.0249e-06 2.02639e-06 2.02759e-06 2.02853e-06 2.02928e-06 2.02986e-06 2.03031e-06 2.03066e-06 2.03093e-06 2.03113e-06 2.03129e-06 2.03141e-06 2.03149e-06 2.03156e-06 2.03161e-06 2.03164e-06 2.03167e-06 2.03169e-06 2.0317e-06 2.03171e-06 2.03171e-06 2.03172e-06 2.03172e-06 2.03173e-06 2.03173e-06 2.03173e-06 2.03173e-06 2.03173e-06 2.03173e-06 2.03173e-06 2.03173e-06 2.03173e-06 2.03173e-06 2.03173e-06 2.03173e-06 2.03173e-06 2.03173e-06 2.03173e-06 2.03173e-06 2.03172e-06 2.03172e-06 2.03171e-06 2.03171e-06 2.0317e-06 2.03169e-06 2.03167e-06 2.03164e-06 2.03161e-06 2.03156e-06 2.03149e-06 2.03141e-06 2.03129e-06 2.03113e-06 2.03093e-06 2.03066e-06 2.03031e-06 2.02986e-06 2.02928e-06 2.02853e-06 2.02759e-06 2.02639e-06 2.0249e-06 2.02304e-06 2.02074e-06 2.01792e-06 2.01447e-06 2.01029e-06 2.00525e-06 1.99922e-06 1.99204e-06 1.98357e-06 1.97361e-06 1.96201e-06 1.94856e-06 1.93308e-06 1.91538e-06 1.89527e-06 1.87256e-06 1.8471e-06 1.81874e-06 1.78735e-06 1.75283e-06 1.71512e-06 1.67419e-06 1.63006e-06 1.58279e-06 1.53248e-06 1.47929e-06 1.42343e-06 1.36513e-06 1.3047e-06 1.24246e-06 1.17877e-06 1.11404e-06 1.04866e-06 9.8307e-07 9.17694e-07 8.52958e-07 7.89273e-07 7.27032e-07 6.66598e-07 6.08303e-07 5.52438e-07 4.99251e-07 4.48945e-07 4.01673e-07 3.57543e-07 3.16615e-07 2.78903e-07 2.44383e-07 2.12989e-07 1.84626e-07 1.59167e-07 1.36464e-07 1.16351e-07 9.86483e-08 8.31688e-08 6.97214e-08 5.81154e-08 4.81639e-08 3.96866e-08 3.25121e-08 2.64797e-08 2.14406e-08 1.72587e-08 1.38105e-08 1.0986e-08 8.68732e-09 6.82872e-09 5.33572e-09 4.14419e-09 3.19942e-09 2.45517e-09 1.87269e-09 1.41976e-09 1.06986e-09 8.01299e-10 5.96503e-10 4.41345e-10 3.24552e-10 2.37208e-10 1.7231e-10 1.244e-10 8.926e-11 6.36528e-11 4.51126e-11 3.17754e-11 2.22428e-11 1.5473e-11 1.06956e-11 7.34506e-12 5.00878e-12 3.38786e-12 2.26676e-12 1.49056e-12 9.47677e-13 5.56847e-13 2.57122e-13 0 
0 3.80438e-13 8.23836e-13 1.40187e-12 2.20457e-12 3.35195e-12 5.00878e-12 7.40374e-12 1.08549e-11 1.58034e-11 2.28577e-11 3.28522e-11 4.69227e-11 6.66051e-11 9.39609e-11 1.31737e-10 1.83567e-10 2.5422e-10 3.4991e-10 4.78672e-10 6.5082e-10 8.79482e-10 1.18125e-09 1.57691e-09 2.09234e-09 2.75943e-09 3.61722e-09 4.71308e-09 6.10401e-09 7.858e-09 1.00555e-08 1.27908e-08 1.61733e-08 2.03292e-08 2.54019e-08 3.15537e-08 3.89655e-08 4.78375e-08 5.83881e-08 7.08534e-08 8.54851e-08 1.02548e-07 1.22316e-07 1.4507e-07 1.7109e-07 2.00651e-07 2.34016e-07 2.71428e-07 3.13107e-07 3.59236e-07 4.09956e-07 4.65362e-07 5.25492e-07 5.90323e-07 6.59766e-07 7.33665e-07 8.11793e-07 8.93853e-07 9.79479e-07 1.06825e-06 1.15967e-06 1.25321e-06 1.34829e-06 1.44431e-06 1.54065e-06 1.63667e-06 1.73175e-06 1.82529e-06 1.91671e-06 2.00548e-06 2.0911e-06 2.17316e-06 2.25129e-06 2.32519e-06 2.39463e-06 2.45946e-06 2.51959e-06 2.575e-06 2.62572e-06 2.67185e-06 2.71353e-06 2.75094e-06 2.7843e-06 2.81387e-06 2.83988e-06 2.86264e-06 2.88241e-06 2.89947e-06 2.9141e-06 2.92657e-06 2.93712e-06 2.94599e-06 2.9534e-06 2.95955e-06 2.96463e-06 2.96878e-06 2.97216e-06 2.9749e-06 2.9771e-06 2.97885e-06 2.98024e-06 2.98134e-06 2.9822e-06 2.98286e-06 2.98338e-06 2.98377e-06 2.98408e-06 2.9843e-06 2.98448e-06 2.98461e-06 2.9847e-06 2.98477e-06 2.98482e-06 2.98486e-06 2.98489e-06 2.98491e-06 2.98492e-06 2.98493e-06 2.98494e-06 2.98494e-06 2.98495e-06 2.98495e-06 2.98495e-06 2.98495e-06 2.98495e-06 2.98495e-06 2.98495e-06 2.98495e-06 2.98495e-06 2.98495e-06 2.98495e-06 2.98495e-06 2.98495e-06 2.98495e-06 2.98495e-06 2.98495e-06 2.98494e-06 2.98494e-06 2.98493e-06 2.98492e-06 2.98491e-06 2.98489e-06 2.98486e-06 2.98482e-06 2.98477e-06 2.9847e-06 2.98461e-06 2.98448e-06 2.9843e-06 2.98408e-06 2.98377e-06 2.98338e-06 2.98286e-06 2.9822e-06 2.98134e-06 2.98024e-06 2.97885e-06 2.9771e-06 2.9749e-06 2.97216e-06 2.96878e-06 2.96463e-06 2.95955e-06 2.9534e-06 2.94599e-06 2.93712e-06 2.92657e-06 2.9141e-06 2.89947e-06 2.88241e-06 2.86264e-06 2.83988e-06 2.81387e-06 2.7843e-06 2.75094e-06 2.71353e-06 2.67185e-06 2.62572e-06 2.575e-06 2.51959e-06 2.45946e-06 2.39463e-06 2.32519e-06 2.25129e-06 2.17316e-06 2.0911e-06 2.00548e-06 1.91671e-06 1.82529e-06 1.73175e-06 1.63667e-06 1.54065e-06 1.44431e-06 1.34829e-06 1.25321e-06 1.15967e-06 1.06825e-06 9.79479e-07 8.93853e-07 8.11793e-07 7.33665e-07 6.59766e-07 5.90323e-07 5.25492e-07 4.65362e-07 4.09956e-07 3.59236e-07 3.13107e-07 2.71428e-07 2.34016e-07 2.00651e-07 1.7109e-07 1.4507e-07 1.22316e-07 1.02548e-07 8.54851e-08 7.08534e-08 5.83881e-08 4.78375e-08 3.89655e-08 3.15537e-08 2.54019e-08 2.03292e-08 1.61733e-08 1.27908e-08 1.00555e-08 7.858e-09 6.10401e-09 4.71308e-09 3.61722e-09 2.75943e-09 2.09234e-09 1.57691e-09 1.18125e-09 8.79482e-10 6.5082e-10 4.78672e-10 3.4991e-10 2.5422e-10 1.83567e-10 1.31737e-10 9.39609e-11 6.66051e-11 4.69227e-11 3.28522e-11 2.28577e-11 1.58034e-11 1.08549e-11 7.40374e-12 5.00878e-12 3.35195e-12 2.20457e-12 1.40187e-12 8.23836e-13 3.80438e-13 0 
0 5.58321e-13 1.20893e-12 2.05689e-12 3.2341e-12 4.9164e-12 7.34506e-12 1.08549e-11 1.59116e-11 2.31607e-11 3.34925e-11 4.81275e-11 6.87272e-11 9.75375e-11 1.37572e-10 1.92847e-10 2.68672e-10 3.72016e-10 5.11959e-10 7.00237e-10 9.51912e-10 1.28616e-09 1.72719e-09 2.30537e-09 3.05845e-09 4.03298e-09 5.28591e-09 6.88636e-09 8.91747e-09 1.14784e-08 1.46865e-08 1.86792e-08 2.36161e-08 2.9681e-08 3.70832e-08 4.60589e-08 5.68719e-08 6.98137e-08 8.52028e-08 1.03383e-07 1.24721e-07 1.49602e-07 1.78426e-07 2.11601e-07 2.49534e-07 2.92626e-07 3.41261e-07 3.95792e-07 4.56538e-07 5.23765e-07 5.97681e-07 6.78421e-07 7.66041e-07 8.60506e-07 9.6169e-07 1.06936e-06 1.18319e-06 1.30275e-06 1.42749e-06 1.55681e-06 1.69e-06 1.82627e-06 1.96478e-06 2.10467e-06 2.24501e-06 2.38489e-06 2.52341e-06 2.65968e-06 2.79286e-06 2.92218e-06 3.04693e-06 3.16649e-06 3.28032e-06 3.38799e-06 3.48917e-06 3.58364e-06 3.67126e-06 3.752e-06 3.82591e-06 3.89314e-06 3.95388e-06 4.00842e-06 4.05705e-06 4.10014e-06 4.13808e-06 4.17125e-06 4.20007e-06 4.22496e-06 4.24629e-06 4.26447e-06 4.27986e-06 4.29281e-06 4.30362e-06 4.31259e-06 4.32e-06 4.32606e-06 4.331e-06 4.33499e-06 4.3382e-06 4.34076e-06 4.34279e-06 4.34439e-06 4.34564e-06 4.34662e-06 4.34737e-06 4.34795e-06 4.34839e-06 4.34873e-06 4.34898e-06 4.34917e-06 4.34931e-06 4.34941e-06 4.34948e-06 4.34954e-06 4.34958e-06 4.34961e-06 4.34963e-06 4.34964e-06 4.34965e-06 4.34966e-06 4.34967e-06 4.34967e-06 4.34967e-06 4.34967e-06 4.34967e-06 4.34968e-06 4.34968e-06 4.34968e-06 4.34968e-06 4.34968e-06 4.34968e-06 4.34967e-06 4.34967e-06 4.34967e-06 4.34967e-06 4.34967e-06 4.34966e-06 4.34965e-06 4.34964e-06 4.34963e-06 4.34961e-06 4.34958e-06 4.34954e-06 4.34948e-06 4.34941e-06 4.34931e-06 4.34917e-06 4.34898e-06 4.34873e-06 4.34839e-06 4.34795e-06 4.34737e-06 4.34662e-06 4.34564e-06 4.34439e-06 4.34279e-06 4.34076e-06 4.3382e-06 4.33499e-06 4.331e-06 4.32606e-06 4.32e-06 4.31259e-06 4.30362e-06 4.29281e-06 4.27986e-06 4.26447e-06 4.24629e-06 4.22496e-06 4.20007e-06 4.17125e-06 4.13808e-06 4.10014e-06 4.05705e-06 4.00842e-06 3.95388e-06 3.89314e-06 3.82591e-06 3.752e-06 3.67126e-06 3.58364e-06 3.48917e-06 3.38799e-06 3.28032e-06 3.16649e-06 3.04693e-06 2.92218e-06 2.79286e-06 2.65968e-06 2.52341e-06 2.38489e-06 2.24501e-06 2.10467e-06 1.96478e-06 1.82627e-06 1.69e-06 1.55681e-06 1.42749e-06 1.30275e-06 1.18319e-06 1.06936e-06 9.6169e-07 8.60506e-07 7.66041e-07 6.78421e-07 5.97681e-07 5.23765e-07 4.56538e-07 3.95792e-07 3.41261e-07 2.92626e-07 2.49534e-07 2.11601e-07 1.78426e-07 1.49602e-07 1.24721e-07 1.03383e-07 8.52028e-08 6.98137e-08 5.68719e-08 4.60589e-08 3.70832e-08 2.9681e-08 2.36161e-08 1.86792e-08 1.46865e-08 1.14784e-08 8.91747e-09 6.88636e-09 5.28591e-09 4.03298e-09 3.05845e-09 2.30537e-09 1.72719e-09 1.28616e-09 9.51912e-10 7.00237e-10 5.11959e-10 3.72016e-10 2.68672e-10 1.92847e-10 1.37572e-10 9.75375e-11 6.87272e-11 4.81275e-11 3.34925e-11 2.31607e-11 1.59116e-11 1.08549e-11 7.34506e-12 4.9164e-12 3.2341e-12 2.05689e-12 1.20893e-12 5.58321e-13 0 
0 8.13636e-13 1.76161e-12 2.99681e-12 4.71119e-12 7.1605e-12 1.06956e-11 1.58034e-11 2.31607e-11 3.37056e-11 4.87318e-11 7.00123e-11 9.99601e-11 1.41837e-10 2.00018e-10 2.80332e-10 3.90486e-10 5.40592e-10 7.43822e-10 1.0172e-09 1.38258e-09 1.86774e-09 2.50782e-09 3.34682e-09 4.43944e-09 5.85316e-09 7.6705e-09 9.99158e-09 1.29368e-08 1.66499e-08 2.13007e-08 2.70882e-08 3.42436e-08 4.30327e-08 5.37587e-08 6.67634e-08 8.24284e-08 1.01176e-07 1.23466e-07 1.49796e-07 1.80697e-07 2.16726e-07 2.58462e-07 3.06493e-07 3.61409e-07 4.2379e-07 4.94188e-07 5.73118e-07 6.61038e-07 7.58332e-07 8.65301e-07 9.8214e-07 1.10893e-06 1.24562e-06 1.39202e-06 1.54781e-06 1.7125e-06 1.88547e-06 2.06595e-06 2.25304e-06 2.44572e-06 2.64286e-06 2.84324e-06 3.04561e-06 3.24863e-06 3.451e-06 3.65139e-06 3.84852e-06 4.0412e-06 4.22829e-06 4.40877e-06 4.58174e-06 4.74643e-06 4.90222e-06 5.04862e-06 5.18531e-06 5.3121e-06 5.42894e-06 5.53591e-06 5.63321e-06 5.72112e-06 5.80006e-06 5.87045e-06 5.93283e-06 5.98775e-06 6.03578e-06 6.07752e-06 6.11355e-06 6.14445e-06 6.17078e-06 6.19307e-06 6.21181e-06 6.22748e-06 6.24048e-06 6.25121e-06 6.26e-06 6.26715e-06 6.27294e-06 6.27759e-06 6.28131e-06 6.28425e-06 6.28657e-06 6.28839e-06 6.2898e-06 6.2909e-06 6.29174e-06 6.29238e-06 6.29286e-06 6.29323e-06 6.2935e-06 6.2937e-06 6.29385e-06 6.29396e-06 6.29404e-06 6.2941e-06 6.29414e-06 6.29417e-06 6.29419e-06 6.29421e-06 6.29422e-06 6.29423e-06 6.29423e-06 6.29424e-06 6.29424e-06 6.29424e-06 6.29424e-06 6.29424e-06 6.29424e-06 6.29424e-06 6.29424e-06 6.29424e-06 6.29424e-06 6.29424e-06 6.29424e-06 6.29423e-06 6.29423e-06 6.29422e-06 6.29421e-06 6.29419e-06 6.29417e-06 6.29414e-06 6.2941e-06 6.29404e-06 6.29396e-06 6.29385e-06 6.2937e-06 6.2935e-06 6.29323e-06 6.29286e-06 6.29238e-06 6.29174e-06 6.2909e-06 6.2898e-06 6.28839e-06 6.28657e-06 6.28425e-06 6.28131e-06 6.27759e-06 6.27294e-06 6.26715e-06 6.26e-06 6.25121e-06 6.24048e-06 6.22748e-06 6.21181e-06 6.19307e-06 6.17078e-06 6.14445e-06 6.11355e-06 6.07752e-06 6.03578e-06 5.98775e-06 5.93283e-06 5.87045e-06 5.80006e-06 5.72112e-06 5.63321e-06 5.53591e-06 5.42894e-06 5.3121e-06 5.18531e-06 5.04862e-06 4.90222e-06 4.74643e-06 4.58174e-06 4.40877e-06 4.22829e-06 4.0412e-06 3.84852e-06 3.65139e-06 3.451e-06 3.24863e-06 3.04561e-06 2.84324e-06 2.64286e-06 2.44572e-06 2.25304e-06 2.06595e-06 1.88547e-06 1.7125e-06 1.54781e-06 1.39202e-06 1.24562e-06 1.10893e-06 9.8214e-07 8.65301e-07 7.58332e-07 6.61038e-07 5.73118e-07 4.94188e-07 4.2379e-07 3.61409e-07 3.06493e-07 2.58462e-07 2.16726e-07 1.80697e-07 1.49796e-07 1.23466e-07 1.01176e-07 8.24284e-08 6.67634e-08 5.37587e-08 4.30327e-08 3.42436e-08 2.70882e-08 2.13007e-08 1.66499e-08 1.29368e-08 9.99158e-09 7.6705e-09 5.85316e-09 4.43944e-09 3.34682e-09 2.50782e-09 1.86774e-09 1.38258e-09 1.0172e-09 7.43822e-10 5.40592e-10 3.90486e-10 2.80332e-10 2.00018e-10 1.41837e-10 9.99601e-11 7.00123e-11 4.87318e-11 3.37056e-11 2.31607e-11 1.58034e-11 1.06956e-11 7.1605e-12 4.71119e-12 2.99681e-12 1.76161e-12 8.13636e-13 0 