<?xml version="1.0"?>
<VTKFile type="ImageData" version="0.1" byte_order="LittleEndian">
  <ImageData WholeExtent="0 255 0 255 0 0" Origin="0 0 0" Spacing="1 1 1">
  <Piece Extent="0 255 0 255 0 0">
    <PointData>
      <DataArray type="Float32" Name="scalar_data" format="ascii" >0 0 0 0 0 0 0 0 0 0 0 0 0 0 0 0 0 0 0 0 0 0 0 0 0 0 0 0 0 0 0 0 0 0 0 0 0 0 0 0 0 0 0 0 0 0 0 0 0 0 0 0 0 0 0 0 0 0 0 0 0 0 0 0 0 0 0 0 0 0 0 0 0 0 0 0 0 0 0 0 0 0 0 0 0 0 0 0 0 0 0 0 0 0 0 0 0 0 0 0 0 0 0 0 0 0 0 0 0 0 0 0 0 0 0 0 0 0 0 0 0 0 0 0 0 0 0 0 0 0 0 0 0 0 0 0 0 0 0 0 0 0 0 0 0 0 0 0 0 0 0 0 0 0 0 0 0 0 0 0 0 0 0 0 0 0 0 0 0 0 0 0 0 0 0 0 0 0 0 0 0 0 0 0 0 0 0 0 0 0 0 0 0 0 0 0 0 0 0 0 0 0 0 0 0 0 0 0 0 0 0 0 0 0 0 0 0 0 0 0 0 0 0 0 0 0 0 0 0 0 0 0 0 0 0 0 0 0 0 0 0 0 0 0 0 0 0 0 0 0 0 0 0 0 0 0 
0 4.48164e-16 9.96359e-16 1.76378e-15 2.91096e-15 4.66839e-15 7.37558e-15 1.1536e-14 1.78951e-14 2.75501e-14 4.21047e-14 6.38852e-14 9.62384e-14 1.4394e-13 2.13751e-13 3.15156e-13 4.61361e-13 6.70588e-13 9.67771e-13 1.38674e-12 1.97301e-12 2.78724e-12 3.90965e-12 5.44531e-12 7.5307e-12 1.03414e-11 1.41014e-11 1.90936e-11 2.56722e-11 3.42765e-11 4.54457e-11 5.9836e-11 7.8237e-11 1.0159e-10 1.31005e-10 1.67779e-10 2.13405e-10 2.69589e-10 3.38256e-10 4.21547e-10 5.21817e-10 6.41618e-10 7.83677e-10 9.50862e-10 1.14613e-09 1.37249e-09 1.63291e-09 1.93026e-09 2.26721e-09 2.64616e-09 3.06912e-09 3.53766e-09 4.05276e-09 4.61478e-09 5.22336e-09 5.87739e-09 6.57495e-09 7.31332e-09 8.089e-09 8.8977e-09 9.73447e-09 1.05937e-08 1.14695e-08 1.23552e-08 1.32443e-08 1.413e-08 1.50058e-08 1.5865e-08 1.67018e-08 1.75105e-08 1.82862e-08 1.90246e-08 1.97221e-08 2.03762e-08 2.09847e-08 2.15468e-08 2.20619e-08 2.25304e-08 2.29534e-08 2.33323e-08 2.36693e-08 2.39666e-08 2.4227e-08 2.44534e-08 2.46487e-08 2.48158e-08 2.49579e-08 2.50777e-08 2.5178e-08 2.52613e-08 2.53299e-08 2.53861e-08 2.54317e-08 2.54685e-08 2.54979e-08 2.55213e-08 2.55397e-08 2.55541e-08 2.55652e-08 2.55738e-08 2.55804e-08 2.55854e-08 2.55892e-08 2.5592e-08 2.55941e-08 2.55956e-08 2.55967e-08 2.55975e-08 2.55981e-08 2.55985e-08 2.55988e-08 2.55991e-08 2.55992e-08 2.55993e-08 2.55994e-08 2.55994e-08 2.55995e-08 2.55995e-08 2.55995e-08 2.55995e-08 2.55995e-08 2.55995e-08 2.55995e-08 2.55995e-08 2.55995e-08 2.55995e-08 2.55995e-08 2.55995e-08 2.55995e-08 2.55995e-08 2.55995e-08 2.55995e-08 2.55995e-08 2.55995e-08 2.55995e-08 2.55995e-08 2.55995e-08 2.55995e-08 2.55995e-08 2.55995e-08 2.55994e-08 2.55994e-08 2.55993e-08 2.55992e-08 2.55991e-08 2.55988e-08 2.55985e-08 2.55981e-08 2.55975e-08 2.55967e-08 2.55956e-08 2.55941e-08 2.5592e-08 2.55892e-08 2.55854e-08 2.55804e-08 2.55738e-08 2.55652e-08 2.55541e-08 2.55397e-08 2.55213e-08 2.54979e-08 2.54685e-08 2.54317e-08 2.53861e-08 2.53299e-08 2.52613e-08 2.5178e-08 2.50777e-08 2.49579e-08 2.48158e-08 2.46487e-08 2.44534e-08 2.4227e-08 2.39666e-08 2.36693e-08 2.33323e-08 2.29534e-08 2.25304e-08 2.20619e-08 2.15468e-08 2.09847e-08 2.03762e-08 1.97221e-08 1.90246e-08 1.82862e-08 1.75105e-08 1.67018e-08 1.5865e-08 1.50058e-08 1.413e-08 1.32443e-08 1.23552e-08 1.14695e-08 1.05937e-08 9.73447e-09 8.8977e-09 8.089e-09 7.31332e-09 6.57495e-09 5.87739e-09 5.22336e-09 4.61478e-09 4.05276e-09 3.53766e-09 3.06912e-09 2.64616e-09 2.26721e-09 1.93026e-09 1.63291e-09 1.37249e-09 1.14613e-09 9.50862e-10 7.83677e-10 6.41618e-10 5.21817e-10 4.21547e-10 3.38256e-10 2.69589e-10 2.13405e-10 1.67779e-10 1.31005e-10 1.0159e-10 7.8237e-11 5.9836e-11 4.54457e-11 3.42765e-11 2.56722e-11 1.90936e-11 1.41014e-11 1.03414e-11 7.5307e-12 5.44531e-12 3.90965e-12 2.78724e-12 1.97301e-12 1.38674e-12 9.67771e-13 6.70588e-13 4.61361e-13 3.15156e-13 2.13751e-13 1.4394e-13 9.62384e-14 6.38852e-14 4.21047e-14 2.75501e-14 1.78951e-14 1.1536e-14 7.37558e-15 4.66839e-15 2.91096e-15 1.76378e-15 9.96359e-16 4.48164e-16 0 
0 9.96359e-16 2.21493e-15 3.92048e-15 6.46954e-15 1.03738e-14 1.6387e-14 2.56268e-14 3.97471e-14 6.11825e-14 9.3491e-14 1.41832e-13 2.13629e-13 3.19473e-13 4.74349e-13 6.99291e-13 1.02356e-12 1.48755e-12 2.14652e-12 3.07541e-12 4.37505e-12 6.17984e-12 8.66743e-12 1.20705e-11 1.66913e-11 2.29186e-11 3.12482e-11 4.23064e-11 5.68772e-11 7.59327e-11 1.00667e-10 1.3253e-10 1.73271e-10 2.24971e-10 2.90087e-10 3.71485e-10 4.7247e-10 5.96816e-10 7.48776e-10 9.33087e-10 1.15495e-09 1.42002e-09 1.73432e-09 2.10418e-09 2.53615e-09 3.03687e-09 3.61291e-09 4.27059e-09 5.01583e-09 5.85393e-09 6.78934e-09 7.8255e-09 8.96459e-09 1.02074e-08 1.15531e-08 1.29993e-08 1.45417e-08 1.61744e-08 1.78895e-08 1.96775e-08 2.15277e-08 2.34275e-08 2.53637e-08 2.73221e-08 2.92878e-08 3.12462e-08 3.31824e-08 3.50822e-08 3.69323e-08 3.87204e-08 4.04355e-08 4.20681e-08 4.36105e-08 4.50567e-08 4.64025e-08 4.76453e-08 4.87844e-08 4.98205e-08 5.0756e-08 5.1594e-08 5.23393e-08 5.2997e-08 5.3573e-08 5.40737e-08 5.45057e-08 5.48756e-08 5.51899e-08 5.54549e-08 5.56768e-08 5.58611e-08 5.60131e-08 5.61374e-08 5.62384e-08 5.63198e-08 5.63849e-08 5.64366e-08 5.64774e-08 5.65092e-08 5.6534e-08 5.6553e-08 5.65676e-08 5.65786e-08 5.6587e-08 5.65932e-08 5.65978e-08 5.66012e-08 5.66037e-08 5.66055e-08 5.66068e-08 5.66077e-08 5.66084e-08 5.66089e-08 5.66092e-08 5.66094e-08 5.66096e-08 5.66097e-08 5.66097e-08 5.66098e-08 5.66098e-08 5.66098e-08 5.66099e-08 5.66099e-08 5.66099e-08 5.66099e-08 5.66099e-08 5.66099e-08 5.66099e-08 5.66099e-08 5.66099e-08 5.66099e-08 5.66099e-08 5.66099e-08 5.66099e-08 5.66099e-08 5.66099e-08 5.66099e-08 5.66098e-08 5.66098e-08 5.66098e-08 5.66097e-08 5.66097e-08 5.66096e-08 5.66094e-08 5.66092e-08 5.66089e-08 5.66084e-08 5.66077e-08 5.66068e-08 5.66055e-08 5.66037e-08 5.66012e-08 5.65978e-08 5.65932e-08 5.6587e-08 5.65786e-08 5.65676e-08 5.6553e-08 5.6534e-08 5.65092e-08 5.64774e-08 5.64366e-08 5.63849e-08 5.63198e-08 5.62384e-08 5.61374e-08 5.60131e-08 5.58611e-08 5.56768e-08 5.54549e-08 5.51899e-08 5.48756e-08 5.45057e-08 5.40737e-08 5.3573e-08 5.2997e-08 5.23393e-08 5.1594e-08 5.0756e-08 4.98205e-08 4.87844e-08 4.76453e-08 4.64025e-08 4.50567e-08 4.36105e-08 4.20681e-08 4.04355e-08 3.87204e-08 3.69323e-08 3.50822e-08 3.31824e-08 3.12462e-08 2.92878e-08 2.73221e-08 2.53637e-08 2.34275e-08 2.15277e-08 1.96775e-08 1.78895e-08 1.61744e-08 1.45417e-08 1.29993e-08 1.15531e-08 1.02074e-08 8.96459e-09 7.8255e-09 6.78934e-09 5.85393e-09 5.01583e-09 4.27059e-09 3.61291e-09 3.03687e-09 2.53615e-09 2.10418e-09 1.73432e-09 1.42002e-09 1.15495e-09 9.33087e-10 7.48776e-10 5.96816e-10 4.7247e-10 3.71485e-10 2.90087e-10 2.24971e-10 1.73271e-10 1.3253e-10 1.00667e-10 7.59327e-11 5.68772e-11 4.23064e-11 3.12482e-11 2.29186e-11 1.66913e-11 1.20705e-11 8.66743e-12 6.17984e-12 4.37505e-12 3.07541e-12 2.14652e-12 1.48755e-12 1.02356e-12 6.99291e-13 4.74349e-13 3.19473e-13 2.13629e-13 1.41832e-13 9.3491e-14 6.11825e-14 3.97471e-14 2.56268e-14 1.6387e-14 1.03738e-14 6.46954e-15 3.92048e-15 2.21493e-15 9.96359e-16 0 
0 1.76378e-15 3.92048e-15 6.93817e-15 1.1447e-14 1.8351e-14 2.89816e-14 4.53122e-14 7.02631e-14 1.08131e-13 1.65195e-13 2.50557e-13 3.77311e-13 5.64132e-13 8.37445e-13 1.23432e-12 1.80634e-12 2.62466e-12 3.78663e-12 5.42427e-12 7.7151e-12 1.08958e-11 1.52791e-11 2.12745e-11 2.94139e-11 4.03813e-11 5.50489e-11 7.45184e-11 1.00169e-10 1.33709e-10 1.77237e-10 2.33305e-10 3.04984e-10 3.95935e-10 5.10471e-10 6.53629e-10 8.31216e-10 1.04986e-09 1.31703e-09 1.64104e-09 2.03104e-09 2.49693e-09 3.0493e-09 3.69926e-09 4.45832e-09 5.3381e-09 6.35014e-09 7.50554e-09 8.81468e-09 1.02868e-08 1.19298e-08 1.37497e-08 1.57503e-08 1.79329e-08 2.02961e-08 2.28357e-08 2.55441e-08 2.84109e-08 3.14224e-08 3.4562e-08 3.78104e-08 4.11462e-08 4.45457e-08 4.7984e-08 5.14354e-08 5.48738e-08 5.82733e-08 6.16091e-08 6.48575e-08 6.79971e-08 7.10086e-08 7.38753e-08 7.65838e-08 7.91234e-08 8.14866e-08 8.36692e-08 8.56698e-08 8.74896e-08 8.91326e-08 9.06048e-08 9.19139e-08 9.30693e-08 9.40814e-08 9.49612e-08 9.57202e-08 9.63702e-08 9.69225e-08 9.73884e-08 9.77784e-08 9.81025e-08 9.83696e-08 9.85883e-08 9.87659e-08 9.8909e-08 9.90235e-08 9.91145e-08 9.91862e-08 9.92422e-08 9.92858e-08 9.93193e-08 9.9345e-08 9.93644e-08 9.93791e-08 9.93901e-08 9.93982e-08 9.94042e-08 9.94086e-08 9.94118e-08 9.94141e-08 9.94157e-08 9.94169e-08 9.94177e-08 9.94183e-08 9.94186e-08 9.94189e-08 9.94191e-08 9.94192e-08 9.94193e-08 9.94194e-08 9.94194e-08 9.94194e-08 9.94195e-08 9.94195e-08 9.94195e-08 9.94195e-08 9.94195e-08 9.94195e-08 9.94195e-08 9.94195e-08 9.94195e-08 9.94195e-08 9.94195e-08 9.94195e-08 9.94195e-08 9.94195e-08 9.94194e-08 9.94194e-08 9.94194e-08 9.94193e-08 9.94192e-08 9.94191e-08 9.94189e-08 9.94186e-08 9.94183e-08 9.94177e-08 9.94169e-08 9.94157e-08 9.94141e-08 9.94118e-08 9.94086e-08 9.94042e-08 9.93982e-08 9.93901e-08 9.93791e-08 9.93644e-08 9.9345e-08 9.93193e-08 9.92858e-08 9.92422e-08 9.91862e-08 9.91145e-08 9.90235e-08 9.8909e-08 9.87659e-08 9.85883e-08 9.83696e-08 9.81025e-08 9.77784e-08 9.73884e-08 9.69225e-08 9.63702e-08 9.57202e-08 9.49612e-08 9.40814e-08 9.30693e-08 9.19139e-08 9.06048e-08 8.91326e-08 8.74896e-08 8.56698e-08 8.36692e-08 8.14866e-08 7.91234e-08 7.65838e-08 7.38753e-08 7.10086e-08 6.79971e-08 6.48575e-08 6.16091e-08 5.82733e-08 5.48738e-08 5.14354e-08 4.7984e-08 4.45457e-08 4.11462e-08 3.78104e-08 3.4562e-08 3.14224e-08 2.84109e-08 2.55441e-08 2.28357e-08 2.02961e-08 1.79329e-08 1.57503e-08 1.37497e-08 1.19298e-08 1.02868e-08 8.81468e-09 7.50554e-09 6.35014e-09 5.3381e-09 4.45832e-09 3.69926e-09 3.0493e-09 2.49693e-09 2.03104e-09 1.64104e-09 1.31703e-09 1.04986e-09 8.31216e-10 6.53629e-10 5.10471e-10 3.95935e-10 3.04984e-10 2.33305e-10 1.77237e-10 1.33709e-10 1.00169e-10 7.45184e-11 5.50489e-11 4.03813e-11 2.94139e-11 2.12745e-11 1.52791e-11 1.08958e-11 7.7151e-12 5.42427e-12 3.78663e-12 2.62466e-12 1.80634e-12 1.23432e-12 8.37445e-13 5.64132e-13 3.77311e-13 2.50557e-13 1.65195e-13 1.08131e-13 7.02631e-14 4.53122e-14 2.89816e-14 1.8351e-14 1.1447e-14 6.93817e-15 3.92048e-15 1.76378e-15 0 
0 2.91096e-15 6.46954e-15 1.1447e-14 1.88812e-14 3.02609e-14 4.77777e-14 7.46788e-14 1.15768e-13 1.78112e-13 2.72034e-13 4.12495e-13 6.2101e-13 9.28261e-13 1.37764e-12 2.03003e-12 2.9701e-12 4.31462e-12 6.22333e-12 8.91279e-12 1.26742e-11 1.78955e-11 2.50894e-11 3.49273e-11 4.82804e-11 6.62696e-11 9.03234e-11 1.22246e-10 1.64295e-10 2.19269e-10 2.90602e-10 3.82469e-10 4.99897e-10 6.48872e-10 8.36452e-10 1.07087e-09 1.36163e-09 1.71956e-09 2.15687e-09 2.68716e-09 3.32537e-09 4.08768e-09 4.99138e-09 6.05465e-09 7.29626e-09 8.73521e-09 1.03903e-08 1.22797e-08 1.44203e-08 1.68274e-08 1.95135e-08 2.24886e-08 2.57589e-08 2.93266e-08 3.31894e-08 3.73402e-08 4.17668e-08 4.6452e-08 5.13735e-08 5.65043e-08 6.18129e-08 6.7264e-08 7.28192e-08 7.84379e-08 8.4078e-08 8.96967e-08 9.52519e-08 1.00703e-07 1.06012e-07 1.11142e-07 1.16064e-07 1.20749e-07 1.25176e-07 1.29327e-07 1.33189e-07 1.36757e-07 1.40027e-07 1.43002e-07 1.45689e-07 1.48096e-07 1.50236e-07 1.52126e-07 1.53781e-07 1.5522e-07 1.56461e-07 1.57525e-07 1.58428e-07 1.59191e-07 1.59829e-07 1.60359e-07 1.60796e-07 1.61154e-07 1.61445e-07 1.61679e-07 1.61867e-07 1.62016e-07 1.62133e-07 1.62225e-07 1.62297e-07 1.62352e-07 1.62394e-07 1.62426e-07 1.6245e-07 1.62468e-07 1.62481e-07 1.62491e-07 1.62498e-07 1.62503e-07 1.62507e-07 1.6251e-07 1.62512e-07 1.62513e-07 1.62514e-07 1.62515e-07 1.62515e-07 1.62515e-07 1.62516e-07 1.62516e-07 1.62516e-07 1.62516e-07 1.62516e-07 1.62516e-07 1.62516e-07 1.62516e-07 1.62516e-07 1.62516e-07 1.62516e-07 1.62516e-07 1.62516e-07 1.62516e-07 1.62516e-07 1.62516e-07 1.62516e-07 1.62516e-07 1.62516e-07 1.62516e-07 1.62516e-07 1.62516e-07 1.62516e-07 1.62516e-07 1.62515e-07 1.62515e-07 1.62515e-07 1.62514e-07 1.62513e-07 1.62512e-07 1.6251e-07 1.62507e-07 1.62503e-07 1.62498e-07 1.62491e-07 1.62481e-07 1.62468e-07 1.6245e-07 1.62426e-07 1.62394e-07 1.62352e-07 1.62297e-07 1.62225e-07 1.62133e-07 1.62016e-07 1.61867e-07 1.61679e-07 1.61445e-07 1.61154e-07 1.60796e-07 1.60359e-07 1.59829e-07 1.59191e-07 1.58428e-07 1.57525e-07 1.56461e-07 1.5522e-07 1.53781e-07 1.52126e-07 1.50236e-07 1.48096e-07 1.45689e-07 1.43002e-07 1.40027e-07 1.36757e-07 1.33189e-07 1.29327e-07 1.25176e-07 1.20749e-07 1.16064e-07 1.11142e-07 1.06012e-07 1.00703e-07 9.52519e-08 8.96967e-08 8.4078e-08 7.84379e-08 7.28192e-08 6.7264e-08 6.18129e-08 5.65043e-08 5.13735e-08 4.6452e-08 4.17668e-08 3.73402e-08 3.31894e-08 2.93266e-08 2.57589e-08 2.24886e-08 1.95135e-08 1.68274e-08 1.44203e-08 1.22797e-08 1.03903e-08 8.73521e-09 7.29626e-09 6.05465e-09 4.99138e-09 4.08768e-09 3.32537e-09 2.68716e-09 2.15687e-09 1.71956e-09 1.36163e-09 1.07087e-09 8.36452e-10 6.48872e-10 4.99897e-10 3.82469e-10 2.90602e-10 2.19269e-10 1.64295e-10 1.22246e-10 9.03234e-11 6.62696e-11 4.82804e-11 3.49273e-11 2.50894e-11 1.78955e-11 1.26742e-11 8.91279e-12 6.22333e-12 4.31462e-12 2.9701e-12 2.03003e-12 1.37764e-12 9.28261e-13 6.2101e-13 4.12495e-13 2.72034e-13 1.78112e-13 1.15768e-13 7.46788e-14 4.77777e-14 3.02609e-14 1.88812e-14 1.1447e-14 6.46954e-15 2.91096e-15 0 
0 4.66839e-15 1.03738e-14 1.8351e-14 3.02609e-14 4.84852e-14 7.65281e-14 1.19581e-13 1.8532e-13 2.85035e-13 4.35211e-13 6.59736e-13 9.92951e-13 1.48381e-12 2.20154e-12 3.24323e-12 4.74386e-12 6.88959e-12 9.93492e-12 1.42249e-11 2.02233e-11 2.85479e-11 4.00149e-11 5.56927e-11 7.6968e-11 1.05624e-10 1.43932e-10 1.94762e-10 2.61703e-10 3.49203e-10 4.6272e-10 6.08889e-10 7.95694e-10 1.03264e-09 1.33095e-09 1.70368e-09 2.16592e-09 2.73487e-09 3.4299e-09 4.27258e-09 5.28662e-09 6.49769e-09 7.93322e-09 9.62203e-09 1.15939e-08 1.38789e-08 1.65069e-08 1.95066e-08 2.29049e-08 2.67258e-08 3.09894e-08 3.57114e-08 4.09015e-08 4.65632e-08 5.26929e-08 5.92793e-08 6.6303e-08 7.37368e-08 8.15452e-08 8.96853e-08 9.81074e-08 1.06755e-07 1.15569e-07 1.24482e-07 1.3343e-07 1.42343e-07 1.51157e-07 1.59805e-07 1.68227e-07 1.76367e-07 1.84175e-07 1.91609e-07 1.98633e-07 2.05219e-07 2.11349e-07 2.17011e-07 2.22201e-07 2.26923e-07 2.31186e-07 2.35007e-07 2.38405e-07 2.41405e-07 2.44033e-07 2.46318e-07 2.4829e-07 2.49979e-07 2.51414e-07 2.52625e-07 2.53639e-07 2.54482e-07 2.55177e-07 2.55746e-07 2.56208e-07 2.56581e-07 2.56879e-07 2.57116e-07 2.57303e-07 2.57449e-07 2.57563e-07 2.5765e-07 2.57717e-07 2.57768e-07 2.57806e-07 2.57835e-07 2.57856e-07 2.57872e-07 2.57883e-07 2.57892e-07 2.57898e-07 2.57902e-07 2.57905e-07 2.57907e-07 2.57909e-07 2.5791e-07 2.57911e-07 2.57911e-07 2.57911e-07 2.57912e-07 2.57912e-07 2.57912e-07 2.57912e-07 2.57912e-07 2.57912e-07 2.57912e-07 2.57912e-07 2.57912e-07 2.57912e-07 2.57912e-07 2.57912e-07 2.57912e-07 2.57912e-07 2.57912e-07 2.57912e-07 2.57912e-07 2.57912e-07 2.57912e-07 2.57912e-07 2.57912e-07 2.57912e-07 2.57911e-07 2.57911e-07 2.57911e-07 2.5791e-07 2.57909e-07 2.57907e-07 2.57905e-07 2.57902e-07 2.57898e-07 2.57892e-07 2.57883e-07 2.57872e-07 2.57856e-07 2.57835e-07 2.57806e-07 2.57768e-07 2.57717e-07 2.5765e-07 2.57563e-07 2.57449e-07 2.57303e-07 2.57116e-07 2.56879e-07 2.56581e-07 2.56208e-07 2.55746e-07 2.55177e-07 2.54482e-07 2.53639e-07 2.52625e-07 2.51414e-07 2.49979e-07 2.4829e-07 2.46318e-07 2.44033e-07 2.41405e-07 2.38405e-07 2.35007e-07 2.31186e-07 2.26923e-07 2.22201e-07 2.17011e-07 2.11349e-07 2.05219e-07 1.98633e-07 1.91609e-07 1.84175e-07 1.76367e-07 1.68227e-07 1.59805e-07 1.51157e-07 1.42343e-07 1.3343e-07 1.24482e-07 1.15569e-07 1.06755e-07 9.81074e-08 8.96853e-08 8.15452e-08 7.37368e-08 6.6303e-08 5.92793e-08 5.26929e-08 4.65632e-08 4.09015e-08 3.57114e-08 3.09894e-08 2.67258e-08 2.29049e-08 1.95066e-08 1.65069e-08 1.38789e-08 1.15939e-08 9.62203e-09 7.93322e-09 6.49769e-09 5.28662e-09 4.27258e-09 3.4299e-09 2.73487e-09 2.16592e-09 1.70368e-09 1.33095e-09 1.03264e-09 7.95694e-10 6.08889e-10 4.6272e-10 3.49203e-10 2.61703e-10 1.94762e-10 1.43932e-10 1.05624e-10 7.6968e-11 5.56927e-11 4.00149e-11 2.85479e-11 2.02233e-11 1.42249e-11 9.93492e-12 6.88959e-12 4.74386e-12 3.24323e-12 2.20154e-12 1.48381e-12 9.92951e-13 6.59736e-13 4.35211e-13 2.85035e-13 1.8532e-13 1.19581e-13 7.65281e-14 4.84852e-14 3.02609e-14 1.8351e-14 1.03738e-14 4.66839e-15 0 
0 7.37558e-15 1.6387e-14 2.89816e-14 4.77777e-14 7.65281e-14 1.20753e-13 1.88626e-13 2.92231e-13 4.49332e-13 6.85863e-13 1.03939e-12 1.5639e-12 2.33633e-12 3.46547e-12 5.10378e-12 7.46327e-12 1.08362e-11 1.56219e-11 2.23619e-11 3.17836e-11 4.48559e-11 6.28586e-11 8.74665e-11 1.20852e-10 1.6581e-10 2.25898e-10 3.05611e-10 4.10568e-10 5.47732e-10 7.25647e-10 9.54693e-10 1.24736e-09 1.61853e-09 2.08572e-09 2.66939e-09 3.3931e-09 4.28374e-09 5.3716e-09 6.69037e-09 8.27708e-09 1.01719e-08 1.24175e-08 1.50591e-08 1.8143e-08 2.17164e-08 2.58256e-08 3.05157e-08 3.58285e-08 4.18014e-08 4.84658e-08 5.58461e-08 6.39575e-08 7.28055e-08 8.23842e-08 9.2676e-08 1.03651e-07 1.15266e-07 1.27465e-07 1.40183e-07 1.53341e-07 1.66852e-07 1.8062e-07 1.94545e-07 2.08524e-07 2.22449e-07 2.36217e-07 2.49728e-07 2.62886e-07 2.75604e-07 2.87803e-07 2.99418e-07 3.10393e-07 3.20685e-07 3.30264e-07 3.39112e-07 3.47223e-07 3.54603e-07 3.61268e-07 3.67241e-07 3.72553e-07 3.77243e-07 3.81353e-07 3.84926e-07 3.8801e-07 3.90652e-07 3.92897e-07 3.94792e-07 3.96379e-07 3.97698e-07 3.98785e-07 3.99676e-07 4.004e-07 4.00983e-07 4.01451e-07 4.01822e-07 4.02114e-07 4.02344e-07 4.02521e-07 4.02659e-07 4.02764e-07 4.02843e-07 4.02903e-07 4.02948e-07 4.02982e-07 4.03006e-07 4.03024e-07 4.03037e-07 4.03047e-07 4.03053e-07 4.03058e-07 4.03062e-07 4.03064e-07 4.03066e-07 4.03067e-07 4.03068e-07 4.03068e-07 4.03068e-07 4.03069e-07 4.03069e-07 4.03069e-07 4.03069e-07 4.03069e-07 4.03069e-07 4.03069e-07 4.03069e-07 4.03069e-07 4.03069e-07 4.03069e-07 4.03069e-07 4.03069e-07 4.03069e-07 4.03069e-07 4.03069e-07 4.03069e-07 4.03069e-07 4.03069e-07 4.03069e-07 4.03068e-07 4.03068e-07 4.03068e-07 4.03067e-07 4.03066e-07 4.03064e-07 4.03062e-07 4.03058e-07 4.03053e-07 4.03047e-07 4.03037e-07 4.03024e-07 4.03006e-07 4.02982e-07 4.02948e-07 4.02903e-07 4.02843e-07 4.02764e-07 4.02659e-07 4.02521e-07 4.02344e-07 4.02114e-07 4.01822e-07 4.01451e-07 4.00983e-07 4.004e-07 3.99676e-07 3.98785e-07 3.97698e-07 3.96379e-07 3.94792e-07 3.92897e-07 3.90652e-07 3.8801e-07 3.84926e-07 3.81353e-07 3.77243e-07 3.72553e-07 3.67241e-07 3.61268e-07 3.54603e-07 3.47223e-07 3.39112e-07 3.30264e-07 3.20685e-07 3.10393e-07 2.99418e-07 2.87803e-07 2.75604e-07 2.62886e-07 2.49728e-07 2.36217e-07 2.22449e-07 2.08524e-07 1.94545e-07 1.8062e-07 1.66852e-07 1.53341e-07 1.40183e-07 1.27465e-07 1.15266e-07 1.03651e-07 9.2676e-08 8.23842e-08 7.28055e-08 6.39575e-08 5.58461e-08 4.84658e-08 4.18014e-08 3.58285e-08 3.05157e-08 2.58256e-08 2.17164e-08 1.8143e-08 1.50591e-08 1.24175e-08 1.01719e-08 8.27708e-09 6.69037e-09 5.3716e-09 4.28374e-09 3.3931e-09 2.66939e-09 2.08572e-09 1.61853e-09 1.24736e-09 9.54693e-10 7.25647e-10 5.47732e-10 4.10568e-10 3.05611e-10 2.25898e-10 1.6581e-10 1.20852e-10 8.74665e-11 6.28586e-11 4.48559e-11 3.17836e-11 2.23619e-11 1.56219e-11 1.08362e-11 7.46327e-12 5.10378e-12 3.46547e-12 2.33633e-12 1.5639e-12 1.03939e-12 6.85863e-13 4.49332e-13 2.92231e-13 1.88626e-13 1.20753e-13 7.65281e-14 4.77777e-14 2.89816e-14 1.6387e-14 7.37558e-15 0 
0 1.1536e-14 2.56268e-14 4.53122e-14 7.46788e-14 1.19581e-13 1.88626e-13 2.94556e-13 4.562e-13 7.01233e-13 1.07004e-12 1.6211e-12 2.43844e-12 3.64177e-12 5.40028e-12 7.95107e-12 1.16237e-11 1.68723e-11 2.43175e-11 3.48003e-11 4.94503e-11 6.97718e-11 9.77509e-11 1.35987e-10 1.8785e-10 2.57673e-10 3.50977e-10 4.74726e-10 6.37632e-10 8.50483e-10 1.12652e-09 1.48182e-09 1.93573e-09 2.51128e-09 3.23561e-09 4.14037e-09 5.26203e-09 6.6422e-09 8.32773e-09 1.03707e-08 1.28285e-08 1.57631e-08 1.92407e-08 2.33308e-08 2.81054e-08 3.3637e-08 3.99976e-08 4.72565e-08 5.54784e-08 6.47211e-08 7.50331e-08 8.64518e-08 9.90009e-08 1.12689e-07 1.27506e-07 1.43425e-07 1.604e-07 1.78365e-07 1.97233e-07 2.16902e-07 2.37251e-07 2.58145e-07 2.79438e-07 3.00973e-07 3.22589e-07 3.44124e-07 3.65417e-07 3.86311e-07 4.0666e-07 4.26329e-07 4.45197e-07 4.63162e-07 4.80137e-07 4.96056e-07 5.10873e-07 5.24561e-07 5.3711e-07 5.48529e-07 5.58841e-07 5.68083e-07 5.76305e-07 5.83564e-07 5.89925e-07 5.95457e-07 6.00231e-07 6.04321e-07 6.07799e-07 6.10733e-07 6.13191e-07 6.15234e-07 6.1692e-07 6.183e-07 6.19422e-07 6.20326e-07 6.21051e-07 6.21626e-07 6.2208e-07 6.22435e-07 6.22711e-07 6.22924e-07 6.23087e-07 6.23211e-07 6.23304e-07 6.23374e-07 6.23426e-07 6.23464e-07 6.23492e-07 6.23512e-07 6.23527e-07 6.23538e-07 6.23545e-07 6.2355e-07 6.23554e-07 6.23557e-07 6.23558e-07 6.2356e-07 6.2356e-07 6.23561e-07 6.23561e-07 6.23562e-07 6.23562e-07 6.23562e-07 6.23562e-07 6.23562e-07 6.23562e-07 6.23562e-07 6.23562e-07 6.23562e-07 6.23562e-07 6.23562e-07 6.23562e-07 6.23562e-07 6.23562e-07 6.23562e-07 6.23562e-07 6.23562e-07 6.23562e-07 6.23561e-07 6.23561e-07 6.2356e-07 6.2356e-07 6.23558e-07 6.23557e-07 6.23554e-07 6.2355e-07 6.23545e-07 6.23538e-07 6.23527e-07 6.23512e-07 6.23492e-07 6.23464e-07 6.23426e-07 6.23374e-07 6.23304e-07 6.23211e-07 6.23087e-07 6.22924e-07 6.22711e-07 6.22435e-07 6.2208e-07 6.21626e-07 6.21051e-07 6.20326e-07 6.19422e-07 6.183e-07 6.1692e-07 6.15234e-07 6.13191e-07 6.10733e-07 6.07799e-07 6.04321e-07 6.00231e-07 5.95457e-07 5.89925e-07 5.83564e-07 5.76305e-07 5.68083e-07 5.58841e-07 5.48529e-07 5.3711e-07 5.24561e-07 5.10873e-07 4.96056e-07 4.80137e-07 4.63162e-07 4.45197e-07 4.26329e-07 4.0666e-07 3.86311e-07 3.65417e-07 3.44124e-07 3.22589e-07 3.00973e-07 2.79438e-07 2.58145e-07 2.37251e-07 2.16902e-07 1.97233e-07 1.78365e-07 1.604e-07 1.43425e-07 1.27506e-07 1.12689e-07 9.90009e-08 8.64518e-08 7.50331e-08 6.47211e-08 5.54784e-08 4.72565e-08 3.99976e-08 3.3637e-08 2.81054e-08 2.33308e-08 1.92407e-08 1.57631e-08 1.28285e-08 1.03707e-08 8.32773e-09 6.6422e-09 5.26203e-09 4.14037e-09 3.23561e-09 2.51128e-09 1.93573e-09 1.48182e-09 1.12652e-09 8.50483e-10 6.37632e-10 4.74726e-10 3.50977e-10 2.57673e-10 1.8785e-10 1.35987e-10 9.77509e-11 6.97718e-11 4.94503e-11 3.48003e-11 2.43175e-11 1.68723e-11 1.16237e-11 7.95107e-12 5.40028e-12 3.64177e-12 2.43844e-12 1.6211e-12 1.07004e-12 7.01233e-13 4.562e-13 2.94556e-13 1.88626e-13 1.19581e-13 7.46788e-14 4.53122e-14 2.56268e-14 1.1536e-14 0 
0 1.78951e-14 3.97471e-14 7.02631e-14 1.15768e-13 1.8532e-13 2.92231e-13 4.562e-13 7.0633e-13 1.08538e-12 1.65571e-12 2.50765e-12 3.77087e-12 5.6301e-12 8.34636e-12 1.22853e-11 1.79551e-11 2.60557e-11 3.75435e-11 5.37141e-11 7.63072e-11 1.07639e-10 1.50768e-10 2.09693e-10 2.89601e-10 3.97157e-10 5.40851e-10 7.31393e-10 9.82175e-10 1.30978e-09 1.73455e-09 2.28119e-09 2.97942e-09 3.86461e-09 4.97843e-09 6.36947e-09 8.09372e-09 1.0215e-08 1.28053e-08 1.59444e-08 1.97204e-08 2.42282e-08 2.95696e-08 3.5851e-08 4.31826e-08 5.16759e-08 6.1441e-08 7.25841e-08 8.52042e-08 9.939e-08 1.15216e-07 1.32739e-07 1.51995e-07 1.72997e-07 1.9573e-07 2.20154e-07 2.46196e-07 2.73754e-07 3.02698e-07 3.32869e-07 3.64083e-07 3.96132e-07 4.28792e-07 4.61824e-07 4.9498e-07 5.28012e-07 5.60672e-07 5.92721e-07 6.23934e-07 6.54105e-07 6.8305e-07 7.10608e-07 7.3665e-07 7.61073e-07 7.83807e-07 8.04809e-07 8.24065e-07 8.41588e-07 8.57414e-07 8.716e-07 8.8422e-07 8.95363e-07 9.05128e-07 9.13621e-07 9.20953e-07 9.27234e-07 9.32576e-07 9.37083e-07 9.40859e-07 9.43999e-07 9.46589e-07 9.4871e-07 9.50434e-07 9.51825e-07 9.52939e-07 9.53824e-07 9.54523e-07 9.55069e-07 9.55494e-07 9.55822e-07 9.56072e-07 9.56263e-07 9.56407e-07 9.56514e-07 9.56594e-07 9.56653e-07 9.56696e-07 9.56727e-07 9.5675e-07 9.56766e-07 9.56778e-07 9.56786e-07 9.56792e-07 9.56795e-07 9.56798e-07 9.568e-07 9.56801e-07 9.56802e-07 9.56803e-07 9.56803e-07 9.56803e-07 9.56804e-07 9.56804e-07 9.56804e-07 9.56804e-07 9.56804e-07 9.56804e-07 9.56804e-07 9.56804e-07 9.56804e-07 9.56804e-07 9.56804e-07 9.56804e-07 9.56804e-07 9.56804e-07 9.56803e-07 9.56803e-07 9.56803e-07 9.56802e-07 9.56801e-07 9.568e-07 9.56798e-07 9.56795e-07 9.56792e-07 9.56786e-07 9.56778e-07 9.56766e-07 9.5675e-07 9.56727e-07 9.56696e-07 9.56653e-07 9.56594e-07 9.56514e-07 9.56407e-07 9.56263e-07 9.56072e-07 9.55822e-07 9.55494e-07 9.55069e-07 9.54523e-07 9.53824e-07 9.52939e-07 9.51825e-07 9.50434e-07 9.4871e-07 9.46589e-07 9.43999e-07 9.40859e-07 9.37083e-07 9.32576e-07 9.27234e-07 9.20953e-07 9.13621e-07 9.05128e-07 8.95363e-07 8.8422e-07 8.716e-07 8.57414e-07 8.41588e-07 8.24065e-07 8.04809e-07 7.83807e-07 7.61073e-07 7.3665e-07 7.10608e-07 6.8305e-07 6.54105e-07 6.23934e-07 5.92721e-07 5.60672e-07 5.28012e-07 4.9498e-07 4.61824e-07 4.28792e-07 3.96132e-07 3.64083e-07 3.32869e-07 3.02698e-07 2.73754e-07 2.46196e-07 2.20154e-07 1.9573e-07 1.72997e-07 1.51995e-07 1.32739e-07 1.15216e-07 9.939e-08 8.52042e-08 7.25841e-08 6.1441e-08 5.16759e-08 4.31826e-08 3.5851e-08 2.95696e-08 2.42282e-08 1.97204e-08 1.59444e-08 1.28053e-08 1.0215e-08 8.09372e-09 6.36947e-09 4.97843e-09 3.86461e-09 2.97942e-09 2.28119e-09 1.73455e-09 1.30978e-09 9.82175e-10 7.31393e-10 5.40851e-10 3.97157e-10 2.89601e-10 2.09693e-10 1.50768e-10 1.07639e-10 7.63072e-11 5.37141e-11 3.75435e-11 2.60557e-11 1.79551e-11 1.22853e-11 8.34636e-12 5.6301e-12 3.77087e-12 2.50765e-12 1.65571e-12 1.08538e-12 7.0633e-13 4.562e-13 2.92231e-13 1.8532e-13 1.15768e-13 7.02631e-14 3.97471e-14 1.78951e-14 0 
0 2.75501e-14 6.11825e-14 1.08131e-13 1.78112e-13 2.85035e-13 4.49332e-13 7.01233e-13 1.08538e-12 1.66732e-12 2.5427e-12 3.84989e-12 5.78757e-12 8.6387e-12 1.28029e-11 1.88399e-11 2.75273e-11 3.9936e-11 5.75288e-11 8.22867e-11 1.16869e-10 1.64817e-10 2.30801e-10 3.20932e-10 4.4313e-10 6.07574e-10 8.27222e-10 1.11842e-09 1.50161e-09 2.00207e-09 2.65085e-09 3.48562e-09 4.55167e-09 5.90295e-09 7.60295e-09 9.72572e-09 1.23566e-08 1.55927e-08 1.95437e-08 2.43313e-08 3.00893e-08 3.69625e-08 4.51055e-08 5.46805e-08 6.58552e-08 7.87989e-08 9.36794e-08 1.10658e-07 1.29886e-07 1.51497e-07 1.75604e-07 2.02295e-07 2.31624e-07 2.63609e-07 2.98231e-07 3.35423e-07 3.75078e-07 4.17041e-07 4.61113e-07 5.07051e-07 5.54575e-07 6.0337e-07 6.53095e-07 7.03385e-07 7.53865e-07 8.04155e-07 8.5388e-07 9.02675e-07 9.50199e-07 9.96137e-07 1.04021e-06 1.08217e-06 1.12183e-06 1.15902e-06 1.19364e-06 1.22563e-06 1.25496e-06 1.28165e-06 1.30575e-06 1.32736e-06 1.34659e-06 1.36357e-06 1.37845e-06 1.39139e-06 1.40257e-06 1.41214e-06 1.42029e-06 1.42716e-06 1.43292e-06 1.43771e-06 1.44166e-06 1.44489e-06 1.44752e-06 1.44965e-06 1.45135e-06 1.4527e-06 1.45376e-06 1.4546e-06 1.45525e-06 1.45575e-06 1.45613e-06 1.45642e-06 1.45664e-06 1.45681e-06 1.45693e-06 1.45702e-06 1.45709e-06 1.45713e-06 1.45717e-06 1.45719e-06 1.45721e-06 1.45722e-06 1.45723e-06 1.45724e-06 1.45724e-06 1.45724e-06 1.45725e-06 1.45725e-06 1.45725e-06 1.45725e-06 1.45725e-06 1.45725e-06 1.45725e-06 1.45725e-06 1.45725e-06 1.45725e-06 1.45725e-06 1.45725e-06 1.45725e-06 1.45725e-06 1.45725e-06 1.45725e-06 1.45725e-06 1.45725e-06 1.45725e-06 1.45725e-06 1.45725e-06 1.45725e-06 1.45725e-06 1.45725e-06 1.45724e-06 1.45724e-06 1.45724e-06 1.45723e-06 1.45722e-06 1.45721e-06 1.45719e-06 1.45717e-06 1.45713e-06 1.45709e-06 1.45702e-06 1.45693e-06 1.45681e-06 1.45664e-06 1.45642e-06 1.45613e-06 1.45575e-06 1.45525e-06 1.4546e-06 1.45376e-06 1.4527e-06 1.45135e-06 1.44965e-06 1.44752e-06 1.44489e-06 1.44166e-06 1.43771e-06 1.43292e-06 1.42716e-06 1.42029e-06 1.41214e-06 1.40257e-06 1.39139e-06 1.37845e-06 1.36357e-06 1.34659e-06 1.32736e-06 1.30575e-06 1.28165e-06 1.25496e-06 1.22563e-06 1.19364e-06 1.15902e-06 1.12183e-06 1.08217e-06 1.04021e-06 9.96137e-07 9.50199e-07 9.02675e-07 8.5388e-07 8.04155e-07 7.53865e-07 7.03385e-07 6.53095e-07 6.0337e-07 5.54575e-07 5.07051e-07 4.61113e-07 4.17041e-07 3.75078e-07 3.35423e-07 2.98231e-07 2.63609e-07 2.31624e-07 2.02295e-07 1.75604e-07 1.51497e-07 1.29886e-07 1.10658e-07 9.36794e-08 7.87989e-08 6.58552e-08 5.46805e-08 4.51055e-08 3.69625e-08 3.00893e-08 2.43313e-08 1.95437e-08 1.55927e-08 1.23566e-08 9.72572e-09 7.60295e-09 5.90295e-09 4.55167e-09 3.48562e-09 2.65085e-09 2.00207e-09 1.50161e-09 1.11842e-09 8.27222e-10 6.07574e-10 4.4313e-10 3.20932e-10 2.30801e-10 1.64817e-10 1.16869e-10 8.22867e-11 5.75288e-11 3.9936e-11 2.75273e-11 1.88399e-11 1.28029e-11 8.6387e-12 5.78757e-12 3.84989e-12 2.5427e-12 1.66732e-12 1.08538e-12 7.01233e-13 4.49332e-13 2.85035e-13 1.78112e-13 1.08131e-13 6.11825e-14 2.75501e-14 0 