<?xml version="1.0"?>
<VTKFile type="ImageData" version="0.1" byte_order="LittleEndian">
  <ImageData WholeExtent="0 255 0 255 0 0" Origin="0 0 0" Spacing="1 1 1">
  <Piece Extent="0 255 0 255 0 0">
    <PointData>
      <DataArray type="Float32" Name="scalar_data" format="ascii" >0 0 0 0 0 0 0 0 0 0 0 0 0 0 0 0 0 0 0 0 0 0 0 0 0 0 0 0 0 0 0 0 0 0 0 0 0 0 0 0 0 0 0 0 0 0 0 0 0 0 0 0 0 0 0 0 0 0 0 0 0 0 0 0 0 0 0 0 0 0 0 0 0 0 0 0 0 0 0 0 0 0 0 0 0 0 0 0 0 0 0 0 0 0 0 0 0 0 0 0 0 0 0 0 0 0 0 0 0 0 0 0 0 0 0 0 0 0 0 0 0 0 0 0 0 0 0 0 0 0 0 0 0 0 0 0 0 0 0 0 0 0 0 0 0 0 0 0 0 0 0 0 0 0 0 0 0 0 0 0 0 0 0 0 0 0 0 0 0 0 0 0 0 0 0 0 0 0 0 0 0 0 0 0 0 0 0 0 0 0 0 0 0 0 0 0 0 0 0 0 0 0 0 0 0 0 0 0 0 0 0 0 0 0 0 0 0 0 0 0 0 0 0 0 0 0 0 0 0 0 0 0 0 0 0 0 0 0 0 0 0 0 0 0 0 0 0 0 0 0 0 0 0 0 0 0 
0 8.99319e-14 1.92981e-13 3.23842e-13 5.00515e-13 7.46324e-13 1.09242e-12 1.58093e-12 2.26905e-12 3.23427e-12 4.58111e-12 6.44982e-12 9.02736e-12 1.25614e-11 1.73775e-11 2.39013e-11 3.26845e-11 4.44381e-11 6.00709e-11 8.07369e-11 1.07891e-10 1.43351e-10 1.89379e-10 2.4876e-10 3.24899e-10 4.21932e-10 5.44841e-10 6.99575e-10 8.93187e-10 1.13397e-09 1.43158e-09 1.79721e-09 2.24363e-09 2.78538e-09 3.4388e-09 4.2221e-09 5.15534e-09 6.26045e-09 7.56105e-09 9.08239e-09 1.0851e-08 1.28946e-08 1.52414e-08 1.79198e-08 2.09582e-08 2.43836e-08 2.82218e-08 3.24962e-08 3.72272e-08 4.24314e-08 4.81212e-08 5.43037e-08 6.09803e-08 6.81465e-08 7.57908e-08 8.38953e-08 9.24349e-08 1.01378e-07 1.10686e-07 1.20314e-07 1.30212e-07 1.40326e-07 1.50597e-07 1.60963e-07 1.71361e-07 1.81727e-07 1.91998e-07 2.02112e-07 2.12011e-07 2.21639e-07 2.30947e-07 2.3989e-07 2.48429e-07 2.56534e-07 2.64178e-07 2.71344e-07 2.78021e-07 2.84203e-07 2.89893e-07 2.95097e-07 2.99828e-07 3.04103e-07 3.07941e-07 3.11366e-07 3.14405e-07 3.17083e-07 3.1943e-07 3.21473e-07 3.23242e-07 3.24763e-07 3.26064e-07 3.27169e-07 3.28102e-07 3.28886e-07 3.29539e-07 3.30081e-07 3.30527e-07 3.30893e-07 3.3119e-07 3.31431e-07 3.31625e-07 3.3178e-07 3.31903e-07 3.32e-07 3.32076e-07 3.32135e-07 3.32181e-07 3.32217e-07 3.32244e-07 3.32264e-07 3.3228e-07 3.32292e-07 3.32301e-07 3.32307e-07 3.32312e-07 3.32315e-07 3.32318e-07 3.3232e-07 3.32321e-07 3.32322e-07 3.32323e-07 3.32323e-07 3.32324e-07 3.32324e-07 3.32324e-07 3.32324e-07 3.32324e-07 3.32324e-07 3.32324e-07 3.32324e-07 3.32324e-07 3.32324e-07 3.32324e-07 3.32324e-07 3.32323e-07 3.32323e-07 3.32322e-07 3.32321e-07 3.3232e-07 3.32318e-07 3.32315e-07 3.32312e-07 3.32307e-07 3.32301e-07 3.32292e-07 3.3228e-07 3.32264e-07 3.32244e-07 3.32217e-07 3.32181e-07 3.32135e-07 3.32076e-07 3.32e-07 3.31903e-07 3.3178e-07 3.31625e-07 3.31431e-07 3.3119e-07 3.30893e-07 3.30527e-07 3.30081e-07 3.29539e-07 3.28886e-07 3.28102e-07 3.27169e-07 3.26064e-07 3.24763e-07 3.23242e-07 3.21473e-07 3.1943e-07 3.17083e-07 3.14405e-07 3.11366e-07 3.07941e-07 3.04103e-07 2.99828e-07 2.95097e-07 2.89893e-07 2.84203e-07 2.78021e-07 2.71344e-07 2.64178e-07 2.56534e-07 2.48429e-07 2.3989e-07 2.30947e-07 2.21639e-07 2.12011e-07 2.02112e-07 1.91998e-07 1.81727e-07 1.71361e-07 1.60963e-07 1.50597e-07 1.40326e-07 1.30212e-07 1.20314e-07 1.10686e-07 1.01378e-07 9.24349e-08 8.38953e-08 7.57908e-08 6.81465e-08 6.09803e-08 5.43037e-08 4.81212e-08 4.24314e-08 3.72272e-08 3.24962e-08 2.82218e-08 2.43836e-08 2.09582e-08 1.79198e-08 1.52414e-08 1.28946e-08 1.0851e-08 9.08239e-09 7.56105e-09 6.26045e-09 5.15534e-09 4.2221e-09 3.4388e-09 2.78538e-09 2.24363e-09 1.79721e-09 1.43158e-09 1.13397e-09 8.93187e-10 6.99575e-10 5.44841e-10 4.21932e-10 3.24899e-10 2.4876e-10 1.89379e-10 1.43351e-10 1.07891e-10 8.07369e-11 6.00709e-11 4.44381e-11 3.26845e-11 2.39013e-11 1.73775e-11 1.25614e-11 9.02736e-12 6.44982e-12 4.58111e-12 3.23427e-12 2.26905e-12 1.58093e-12 1.09242e-12 7.46324e-13 5.00515e-13 3.23842e-13 1.92981e-13 8.99319e-14 0 
0 1.92981e-13 4.14097e-13 6.94867e-13 1.07389e-12 1.6012e-12 2.34356e-12 3.39134e-12 4.86713e-12 6.93704e-12 9.82515e-12 1.38321e-11 1.93585e-11 2.69352e-11 3.726e-11 5.12448e-11 7.0072e-11 9.52646e-11 1.2877e-10 1.73061e-10 2.31252e-10 3.07242e-10 4.05871e-10 5.33105e-10 6.96239e-10 9.04132e-10 1.16745e-09 1.49893e-09 1.91368e-09 2.42946e-09 3.06695e-09 3.85007e-09 4.80623e-09 5.96651e-09 7.36591e-09 9.0434e-09 1.10419e-08 1.34084e-08 1.61935e-08 1.94511e-08 2.32381e-08 2.76137e-08 3.26383e-08 3.8373e-08 4.48781e-08 5.22117e-08 6.04289e-08 6.95796e-08 7.97077e-08 9.08486e-08 1.03029e-07 1.16263e-07 1.30556e-07 1.45896e-07 1.62259e-07 1.79607e-07 1.97886e-07 2.17029e-07 2.36952e-07 2.57561e-07 2.78749e-07 3.00397e-07 3.22381e-07 3.44569e-07 3.66826e-07 3.89014e-07 4.10998e-07 4.32647e-07 4.53834e-07 4.74443e-07 4.94366e-07 5.13509e-07 5.31788e-07 5.49136e-07 5.65499e-07 5.80839e-07 5.95132e-07 6.08366e-07 6.20547e-07 6.31687e-07 6.41816e-07 6.50966e-07 6.59183e-07 6.66517e-07 6.73022e-07 6.78757e-07 6.83781e-07 6.88157e-07 6.91944e-07 6.95202e-07 6.97987e-07 7.00353e-07 7.02352e-07 7.04029e-07 7.05429e-07 7.06589e-07 7.07545e-07 7.08328e-07 7.08966e-07 7.09482e-07 7.09896e-07 7.10228e-07 7.10491e-07 7.10699e-07 7.10862e-07 7.10989e-07 7.11088e-07 7.11164e-07 7.11222e-07 7.11266e-07 7.113e-07 7.11325e-07 7.11344e-07 7.11358e-07 7.11368e-07 7.11376e-07 7.11381e-07 7.11385e-07 7.11388e-07 7.1139e-07 7.11392e-07 7.11393e-07 7.11394e-07 7.11394e-07 7.11394e-07 7.11395e-07 7.11395e-07 7.11395e-07 7.11395e-07 7.11395e-07 7.11395e-07 7.11394e-07 7.11394e-07 7.11394e-07 7.11393e-07 7.11392e-07 7.1139e-07 7.11388e-07 7.11385e-07 7.11381e-07 7.11376e-07 7.11368e-07 7.11358e-07 7.11344e-07 7.11325e-07 7.113e-07 7.11266e-07 7.11222e-07 7.11164e-07 7.11088e-07 7.10989e-07 7.10862e-07 7.10699e-07 7.10491e-07 7.10228e-07 7.09896e-07 7.09482e-07 7.08966e-07 7.08328e-07 7.07545e-07 7.06589e-07 7.05429e-07 7.04029e-07 7.02352e-07 7.00353e-07 6.97987e-07 6.95202e-07 6.91944e-07 6.88157e-07 6.83781e-07 6.78757e-07 6.73022e-07 6.66517e-07 6.59183e-07 6.50966e-07 6.41816e-07 6.31687e-07 6.20547e-07 6.08366e-07 5.95132e-07 5.80839e-07 5.65499e-07 5.49136e-07 5.31788e-07 5.13509e-07 4.94366e-07 4.74443e-07 4.53834e-07 4.32647e-07 4.10998e-07 3.89014e-07 3.66826e-07 3.44569e-07 3.22381e-07 3.00397e-07 2.78749e-07 2.57561e-07 2.36952e-07 2.17029e-07 1.97886e-07 1.79607e-07 1.62259e-07 1.45896e-07 1.30556e-07 1.16263e-07 1.03029e-07 9.08486e-08 7.97077e-08 6.95796e-08 6.04289e-08 5.22117e-08 4.48781e-08 3.8373e-08 3.26383e-08 2.76137e-08 2.32381e-08 1.94511e-08 1.61935e-08 1.34084e-08 1.10419e-08 9.0434e-09 7.36591e-09 5.96651e-09 4.80623e-09 3.85007e-09 3.06695e-09 2.42946e-09 1.91368e-09 1.49893e-09 1.16745e-09 9.04132e-10 6.96239e-10 5.33105e-10 4.05871e-10 3.07242e-10 2.31252e-10 1.73061e-10 1.2877e-10 9.52646e-11 7.0072e-11 5.12448e-11 3.726e-11 2.69352e-11 1.93585e-11 1.38321e-11 9.82515e-12 6.93704e-12 4.86713e-12 3.39134e-12 2.34356e-12 1.6012e-12 1.07389e-12 6.94867e-13 4.14097e-13 1.92981e-13 0 
0 3.23842e-13 6.94867e-13 1.16593e-12 1.80175e-12 2.68619e-12 3.93119e-12 5.68817e-12 8.16259e-12 1.16328e-11 1.64742e-11 2.31903e-11 3.24525e-11 4.51494e-11 6.24501e-11 8.58813e-11 1.17423e-10 1.59625e-10 2.15747e-10 2.89928e-10 3.87382e-10 5.14634e-10 6.79783e-10 8.92812e-10 1.16593e-09 1.51395e-09 1.95473e-09 2.50957e-09 3.20374e-09 4.06693e-09 5.13375e-09 6.4442e-09 8.04409e-09 9.98543e-09 1.23267e-08 1.51331e-08 1.84764e-08 2.2435e-08 2.70936e-08 3.25423e-08 3.88762e-08 4.61942e-08 5.45974e-08 6.41877e-08 7.50657e-08 8.73289e-08 1.01069e-07 1.1637e-07 1.33304e-07 1.51932e-07 1.72296e-07 1.94423e-07 2.18317e-07 2.43963e-07 2.71319e-07 3.0032e-07 3.30878e-07 3.62878e-07 3.96184e-07 4.30635e-07 4.66052e-07 5.02241e-07 5.3899e-07 5.7608e-07 6.13284e-07 6.50374e-07 6.87123e-07 7.23312e-07 7.5873e-07 7.93181e-07 8.26486e-07 8.58486e-07 8.89044e-07 9.18046e-07 9.45401e-07 9.71047e-07 9.94941e-07 1.01707e-06 1.03743e-06 1.05606e-06 1.07299e-06 1.08829e-06 1.10204e-06 1.1143e-06 1.12518e-06 1.13477e-06 1.14317e-06 1.15049e-06 1.15682e-06 1.16227e-06 1.16693e-06 1.17089e-06 1.17423e-06 1.17704e-06 1.17938e-06 1.18132e-06 1.18292e-06 1.18423e-06 1.1853e-06 1.18616e-06 1.18685e-06 1.18741e-06 1.18785e-06 1.1882e-06 1.18847e-06 1.18868e-06 1.18885e-06 1.18898e-06 1.18907e-06 1.18915e-06 1.1892e-06 1.18925e-06 1.18928e-06 1.1893e-06 1.18932e-06 1.18933e-06 1.18934e-06 1.18935e-06 1.18935e-06 1.18936e-06 1.18936e-06 1.18936e-06 1.18936e-06 1.18936e-06 1.18936e-06 1.18936e-06 1.18936e-06 1.18936e-06 1.18936e-06 1.18936e-06 1.18936e-06 1.18936e-06 1.18936e-06 1.18936e-06 1.18936e-06 1.18936e-06 1.18936e-06 1.18935e-06 1.18935e-06 1.18934e-06 1.18933e-06 1.18932e-06 1.1893e-06 1.18928e-06 1.18925e-06 1.1892e-06 1.18915e-06 1.18907e-06 1.18898e-06 1.18885e-06 1.18868e-06 1.18847e-06 1.1882e-06 1.18785e-06 1.18741e-06 1.18685e-06 1.18616e-06 1.1853e-06 1.18423e-06 1.18292e-06 1.18132e-06 1.17938e-06 1.17704e-06 1.17423e-06 1.17089e-06 1.16693e-06 1.16227e-06 1.15682e-06 1.15049e-06 1.14317e-06 1.13477e-06 1.12518e-06 1.1143e-06 1.10204e-06 1.08829e-06 1.07299e-06 1.05606e-06 1.03743e-06 1.01707e-06 9.94941e-07 9.71047e-07 9.45401e-07 9.18046e-07 8.89044e-07 8.58486e-07 8.26486e-07 7.93181e-07 7.5873e-07 7.23312e-07 6.87123e-07 6.50374e-07 6.13284e-07 5.7608e-07 5.3899e-07 5.02241e-07 4.66052e-07 4.30635e-07 3.96184e-07 3.62878e-07 3.30878e-07 3.0032e-07 2.71319e-07 2.43963e-07 2.18317e-07 1.94423e-07 1.72296e-07 1.51932e-07 1.33304e-07 1.1637e-07 1.01069e-07 8.73289e-08 7.50657e-08 6.41877e-08 5.45974e-08 4.61942e-08 3.88762e-08 3.25423e-08 2.70936e-08 2.2435e-08 1.84764e-08 1.51331e-08 1.23267e-08 9.98543e-09 8.04409e-09 6.4442e-09 5.13375e-09 4.06693e-09 3.20374e-09 2.50957e-09 1.95473e-09 1.51395e-09 1.16593e-09 8.92812e-10 6.79783e-10 5.14634e-10 3.87382e-10 2.89928e-10 2.15747e-10 1.59625e-10 1.17423e-10 8.58813e-11 6.24501e-11 4.51494e-11 3.24525e-11 2.31903e-11 1.64742e-11 1.16328e-11 8.16259e-12 5.68817e-12 3.93119e-12 2.68619e-12 1.80175e-12 1.16593e-12 6.94867e-13 3.23842e-13 0 
0 5.00515e-13 1.07389e-12 1.80175e-12 2.78401e-12 4.15011e-12 6.07284e-12 8.78584e-12 1.26061e-11 1.7963e-11 2.54356e-11 3.58005e-11 5.00928e-11 6.96828e-11 9.63727e-11 1.32516e-10 1.81163e-10 2.46245e-10 3.32785e-10 4.47158e-10 5.97399e-10 7.93557e-10 1.04811e-09 1.37642e-09 1.7973e-09 2.33357e-09 3.01268e-09 3.86746e-09 4.9368e-09 6.2664e-09 7.90952e-09 9.92771e-09 1.23915e-08 1.53808e-08 1.89857e-08 2.33065e-08 2.84535e-08 3.45475e-08 4.17184e-08 5.01052e-08 5.98539e-08 7.11166e-08 8.40487e-08 9.88069e-08 1.15546e-07 1.34416e-07 1.55557e-07 1.79099e-07 2.05153e-07 2.33811e-07 2.6514e-07 2.99179e-07 3.35937e-07 3.75386e-07 4.17466e-07 4.62077e-07 5.0908e-07 5.58301e-07 6.09529e-07 6.62518e-07 7.16994e-07 7.72655e-07 8.29177e-07 8.86224e-07 9.43446e-07 1.00049e-06 1.05701e-06 1.11268e-06 1.16715e-06 1.22014e-06 1.27137e-06 1.32059e-06 1.36759e-06 1.4122e-06 1.45428e-06 1.49373e-06 1.53049e-06 1.56453e-06 1.59586e-06 1.62452e-06 1.65057e-06 1.67411e-06 1.69525e-06 1.71412e-06 1.73086e-06 1.74562e-06 1.75855e-06 1.76982e-06 1.77956e-06 1.78795e-06 1.79512e-06 1.80122e-06 1.80636e-06 1.81068e-06 1.81429e-06 1.81728e-06 1.81974e-06 1.82176e-06 1.8234e-06 1.82473e-06 1.8258e-06 1.82666e-06 1.82734e-06 1.82787e-06 1.82829e-06 1.82862e-06 1.82888e-06 1.82907e-06 1.82922e-06 1.82934e-06 1.82942e-06 1.82949e-06 1.82954e-06 1.82957e-06 1.8296e-06 1.82962e-06 1.82963e-06 1.82964e-06 1.82965e-06 1.82966e-06 1.82966e-06 1.82966e-06 1.82967e-06 1.82967e-06 1.82967e-06 1.82967e-06 1.82967e-06 1.82967e-06 1.82967e-06 1.82967e-06 1.82967e-06 1.82967e-06 1.82967e-06 1.82967e-06 1.82966e-06 1.82966e-06 1.82966e-06 1.82965e-06 1.82964e-06 1.82963e-06 1.82962e-06 1.8296e-06 1.82957e-06 1.82954e-06 1.82949e-06 1.82942e-06 1.82934e-06 1.82922e-06 1.82907e-06 1.82888e-06 1.82862e-06 1.82829e-06 1.82787e-06 1.82734e-06 1.82666e-06 1.8258e-06 1.82473e-06 1.8234e-06 1.82176e-06 1.81974e-06 1.81728e-06 1.81429e-06 1.81068e-06 1.80636e-06 1.80122e-06 1.79512e-06 1.78795e-06 1.77956e-06 1.76982e-06 1.75855e-06 1.74562e-06 1.73086e-06 1.71412e-06 1.69525e-06 1.67411e-06 1.65057e-06 1.62452e-06 1.59586e-06 1.56453e-06 1.53049e-06 1.49373e-06 1.45428e-06 1.4122e-06 1.36759e-06 1.32059e-06 1.27137e-06 1.22014e-06 1.16715e-06 1.11268e-06 1.05701e-06 1.00049e-06 9.43446e-07 8.86224e-07 8.29177e-07 7.72655e-07 7.16994e-07 6.62518e-07 6.09529e-07 5.58301e-07 5.0908e-07 4.62077e-07 4.17466e-07 3.75386e-07 3.35937e-07 2.99179e-07 2.6514e-07 2.33811e-07 2.05153e-07 1.79099e-07 1.55557e-07 1.34416e-07 1.15546e-07 9.88069e-08 8.40487e-08 7.11166e-08 5.98539e-08 5.01052e-08 4.17184e-08 3.45475e-08 2.84535e-08 2.33065e-08 1.89857e-08 1.53808e-08 1.23915e-08 9.92771e-09 7.90952e-09 6.2664e-09 4.9368e-09 3.86746e-09 3.01268e-09 2.33357e-09 1.7973e-09 1.37642e-09 1.04811e-09 7.93557e-10 5.97399e-10 4.47158e-10 3.32785e-10 2.46245e-10 1.81163e-10 1.32516e-10 9.63727e-11 6.96828e-11 5.00928e-11 3.58005e-11 2.54356e-11 1.7963e-11 1.26061e-11 8.78584e-12 6.07284e-12 4.15011e-12 2.78401e-12 1.80175e-12 1.07389e-12 5.00515e-13 0 
0 7.46324e-13 1.6012e-12 2.68619e-12 4.15011e-12 6.18571e-12 9.05021e-12 1.30914e-11 1.8781e-11 2.67578e-11 3.78835e-11 5.33131e-11 7.45861e-11 1.0374e-10 1.43455e-10 1.97229e-10 2.69598e-10 3.66402e-10 4.95106e-10 6.65184e-10 8.88572e-10 1.1802e-09 1.55859e-09 2.04658e-09 2.67208e-09 3.46898e-09 4.47805e-09 5.74801e-09 7.33658e-09 9.31159e-09 1.17521e-08 1.47494e-08 1.84081e-08 2.28469e-08 2.81994e-08 3.46141e-08 4.22551e-08 5.1301e-08 6.19449e-08 7.43926e-08 8.88607e-08 1.05575e-07 1.24765e-07 1.46664e-07 1.715e-07 1.99497e-07 2.30862e-07 2.65787e-07 3.04437e-07 3.46948e-07 3.93419e-07 4.43909e-07 4.98429e-07 5.5694e-07 6.19351e-07 6.85513e-07 7.55222e-07 8.28219e-07 9.04191e-07 9.82773e-07 1.06356e-06 1.1461e-06 1.22992e-06 1.31452e-06 1.39938e-06 1.48397e-06 1.56779e-06 1.65034e-06 1.73112e-06 1.8097e-06 1.88568e-06 1.95867e-06 2.02838e-06 2.09454e-06 2.15695e-06 2.21547e-06 2.26999e-06 2.32048e-06 2.36695e-06 2.40946e-06 2.44811e-06 2.48303e-06 2.5144e-06 2.5424e-06 2.56723e-06 2.58913e-06 2.60832e-06 2.62503e-06 2.6395e-06 2.65195e-06 2.66259e-06 2.67164e-06 2.67928e-06 2.6857e-06 2.69105e-06 2.69549e-06 2.69915e-06 2.70214e-06 2.70458e-06 2.70656e-06 2.70815e-06 2.70942e-06 2.71043e-06 2.71122e-06 2.71185e-06 2.71234e-06 2.71272e-06 2.71301e-06 2.71323e-06 2.7134e-06 2.71353e-06 2.71363e-06 2.7137e-06 2.71375e-06 2.71379e-06 2.71382e-06 2.71384e-06 2.71386e-06 2.71387e-06 2.71388e-06 2.71388e-06 2.71389e-06 2.71389e-06 2.71389e-06 2.71389e-06 2.71389e-06 2.71389e-06 2.71389e-06 2.71389e-06 2.71389e-06 2.71389e-06 2.71389e-06 2.71389e-06 2.71389e-06 2.71389e-06 2.71388e-06 2.71388e-06 2.71387e-06 2.71386e-06 2.71384e-06 2.71382e-06 2.71379e-06 2.71375e-06 2.7137e-06 2.71363e-06 2.71353e-06 2.7134e-06 2.71323e-06 2.71301e-06 2.71272e-06 2.71234e-06 2.71185e-06 2.71122e-06 2.71043e-06 2.70942e-06 2.70815e-06 2.70656e-06 2.70458e-06 2.70214e-06 2.69915e-06 2.69549e-06 2.69105e-06 2.6857e-06 2.67928e-06 2.67164e-06 2.66259e-06 2.65195e-06 2.6395e-06 2.62503e-06 2.60832e-06 2.58913e-06 2.56723e-06 2.5424e-06 2.5144e-06 2.48303e-06 2.44811e-06 2.40946e-06 2.36695e-06 2.32048e-06 2.26999e-06 2.21547e-06 2.15695e-06 2.09454e-06 2.02838e-06 1.95867e-06 1.88568e-06 1.8097e-06 1.73112e-06 1.65034e-06 1.56779e-06 1.48397e-06 1.39938e-06 1.31452e-06 1.22992e-06 1.1461e-06 1.06356e-06 9.82773e-07 9.04191e-07 8.28219e-07 7.55222e-07 6.85513e-07 6.19351e-07 5.5694e-07 4.98429e-07 4.43909e-07 3.93419e-07 3.46948e-07 3.04437e-07 2.65787e-07 2.30862e-07 1.99497e-07 1.715e-07 1.46664e-07 1.24765e-07 1.05575e-07 8.88607e-08 7.43926e-08 6.19449e-08 5.1301e-08 4.22551e-08 3.46141e-08 2.81994e-08 2.28469e-08 1.84081e-08 1.47494e-08 1.17521e-08 9.31159e-09 7.33658e-09 5.74801e-09 4.47805e-09 3.46898e-09 2.67208e-09 2.04658e-09 1.55859e-09 1.1802e-09 8.88572e-10 6.65184e-10 4.95106e-10 3.66402e-10 2.69598e-10 1.97229e-10 1.43455e-10 1.0374e-10 7.45861e-11 5.33131e-11 3.78835e-11 2.67578e-11 1.8781e-11 1.30914e-11 9.05021e-12 6.18571e-12 4.15011e-12 2.68619e-12 1.6012e-12 7.46324e-13 0 
0 1.09242e-12 2.34356e-12 3.93119e-12 6.07284e-12 9.05021e-12 1.32392e-11 1.91478e-11 2.74652e-11 3.91243e-11 5.5383e-11 7.7928e-11 1.09006e-10 1.51592e-10 2.09595e-10 2.88119e-10 3.93783e-10 5.35105e-10 7.2297e-10 9.71196e-10 1.29718e-09 1.72269e-09 2.27474e-09 2.98659e-09 3.89894e-09 5.06114e-09 6.53261e-09 8.38432e-09 1.07003e-08 1.35795e-08 1.71368e-08 2.15054e-08 2.68374e-08 3.33058e-08 4.11048e-08 5.04508e-08 6.15825e-08 7.47599e-08 9.0264e-08 1.08394e-07 1.29466e-07 1.53806e-07 1.81751e-07 2.13638e-07 2.49801e-07 2.90563e-07 3.36227e-07 3.8707e-07 4.43334e-07 5.05215e-07 5.72859e-07 6.46349e-07 7.25703e-07 8.10863e-07 9.01695e-07 9.97984e-07 1.09943e-06 1.20567e-06 1.31622e-06 1.43058e-06 1.54814e-06 1.66826e-06 1.79023e-06 1.91334e-06 2.03682e-06 2.15992e-06 2.2819e-06 2.40202e-06 2.51958e-06 2.63393e-06 2.74449e-06 2.85072e-06 2.95217e-06 3.04846e-06 3.13929e-06 3.22445e-06 3.30381e-06 3.3773e-06 3.44494e-06 3.50682e-06 3.56309e-06 3.61393e-06 3.65959e-06 3.70036e-06 3.73652e-06 3.76841e-06 3.79635e-06 3.82069e-06 3.84176e-06 3.85989e-06 3.8754e-06 3.88857e-06 3.89971e-06 3.90905e-06 3.91685e-06 3.92332e-06 3.92865e-06 3.93302e-06 3.93658e-06 3.93946e-06 3.94177e-06 3.94362e-06 3.9451e-06 3.94626e-06 3.94717e-06 3.94788e-06 3.94844e-06 3.94886e-06 3.94919e-06 3.94943e-06 3.94962e-06 3.94976e-06 3.94987e-06 3.94995e-06 3.95001e-06 3.95005e-06 3.95008e-06 3.9501e-06 3.95012e-06 3.95013e-06 3.95014e-06 3.95014e-06 3.95015e-06 3.95015e-06 3.95015e-06 3.95015e-06 3.95015e-06 3.95016e-06 3.95016e-06 3.95015e-06 3.95015e-06 3.95015e-06 3.95015e-06 3.95015e-06 3.95014e-06 3.95014e-06 3.95013e-06 3.95012e-06 3.9501e-06 3.95008e-06 3.95005e-06 3.95001e-06 3.94995e-06 3.94987e-06 3.94976e-06 3.94962e-06 3.94943e-06 3.94919e-06 3.94886e-06 3.94844e-06 3.94788e-06 3.94717e-06 3.94626e-06 3.9451e-06 3.94362e-06 3.94177e-06 3.93946e-06 3.93658e-06 3.93302e-06 3.92865e-06 3.92332e-06 3.91685e-06 3.90905e-06 3.89971e-06 3.88857e-06 3.8754e-06 3.85989e-06 3.84176e-06 3.82069e-06 3.79635e-06 3.76841e-06 3.73652e-06 3.70036e-06 3.65959e-06 3.61393e-06 3.56309e-06 3.50682e-06 3.44494e-06 3.3773e-06 3.30381e-06 3.22445e-06 3.13929e-06 3.04846e-06 2.95217e-06 2.85072e-06 2.74449e-06 2.63393e-06 2.51958e-06 2.40202e-06 2.2819e-06 2.15992e-06 2.03682e-06 1.91334e-06 1.79023e-06 1.66826e-06 1.54814e-06 1.43058e-06 1.31622e-06 1.20567e-06 1.09943e-06 9.97984e-07 9.01695e-07 8.10863e-07 7.25703e-07 6.46349e-07 5.72859e-07 5.05215e-07 4.43334e-07 3.8707e-07 3.36227e-07 2.90563e-07 2.49801e-07 2.13638e-07 1.81751e-07 1.53806e-07 1.29466e-07 1.08394e-07 9.0264e-08 7.47599e-08 6.15825e-08 5.04508e-08 4.11048e-08 3.33058e-08 2.68374e-08 2.15054e-08 1.71368e-08 1.35795e-08 1.07003e-08 8.38432e-09 6.53261e-09 5.06114e-09 3.89894e-09 2.98659e-09 2.27474e-09 1.72269e-09 1.29718e-09 9.71196e-10 7.2297e-10 5.35105e-10 3.93783e-10 2.88119e-10 2.09595e-10 1.51592e-10 1.09006e-10 7.7928e-11 5.5383e-11 3.91243e-11 2.74652e-11 1.91478e-11 1.32392e-11 9.05021e-12 6.07284e-12 3.93119e-12 2.34356e-12 1.09242e-12 0 
0 1.58093e-12 3.39134e-12 5.68817e-12 8.78584e-12 1.30914e-11 1.91478e-11 2.76889e-11 3.97098e-11 5.65576e-11 8.00481e-11 1.12616e-10 1.57503e-10 2.19001e-10 3.02751e-10 4.16115e-10 5.68637e-10 7.726e-10 1.0437e-09 1.40186e-09 1.87215e-09 2.48594e-09 3.28215e-09 4.30872e-09 5.62428e-09 7.2999e-09 9.42119e-09 1.20903e-08 1.54284e-08 1.95776e-08 2.47037e-08 3.0998e-08 3.86799e-08 4.7998e-08 5.92319e-08 7.26931e-08 8.87247e-08 1.07701e-07 1.30026e-07 1.56131e-07 1.86468e-07 2.21509e-07 2.61737e-07 3.07637e-07 3.59688e-07 4.18355e-07 4.84074e-07 5.57244e-07 6.3821e-07 7.27256e-07 8.2459e-07 9.30332e-07 1.04451e-06 1.16703e-06 1.29771e-06 1.43624e-06 1.58219e-06 1.73501e-06 1.89406e-06 2.05857e-06 2.22768e-06 2.40047e-06 2.57593e-06 2.75302e-06 2.93065e-06 3.10773e-06 3.28319e-06 3.45598e-06 3.6251e-06 3.7896e-06 3.94865e-06 4.10147e-06 4.24742e-06 4.38595e-06 4.51663e-06 4.63916e-06 4.75333e-06 4.85907e-06 4.95641e-06 5.04545e-06 5.12642e-06 5.19959e-06 5.26531e-06 5.32397e-06 5.37602e-06 5.42192e-06 5.46215e-06 5.49719e-06 5.52753e-06 5.55364e-06 5.57596e-06 5.59494e-06 5.61097e-06 5.62443e-06 5.63566e-06 5.64498e-06 5.65266e-06 5.65896e-06 5.66408e-06 5.66823e-06 5.67157e-06 5.67424e-06 5.67636e-06 5.67804e-06 5.67935e-06 5.68038e-06 5.68118e-06 5.68179e-06 5.68226e-06 5.68262e-06 5.68289e-06 5.68309e-06 5.68325e-06 5.68336e-06 5.68344e-06 5.6835e-06 5.68355e-06 5.68358e-06 5.68361e-06 5.68362e-06 5.68363e-06 5.68364e-06 5.68365e-06 5.68365e-06 5.68366e-06 5.68366e-06 5.68366e-06 5.68366e-06 5.68366e-06 5.68366e-06 5.68366e-06 5.68366e-06 5.68365e-06 5.68365e-06 5.68364e-06 5.68363e-06 5.68362e-06 5.68361e-06 5.68358e-06 5.68355e-06 5.6835e-06 5.68344e-06 5.68336e-06 5.68325e-06 5.68309e-06 5.68289e-06 5.68262e-06 5.68226e-06 5.68179e-06 5.68118e-06 5.68038e-06 5.67935e-06 5.67804e-06 5.67636e-06 5.67424e-06 5.67157e-06 5.66823e-06 5.66408e-06 5.65896e-06 5.65266e-06 5.64498e-06 5.63566e-06 5.62443e-06 5.61097e-06 5.59494e-06 5.57596e-06 5.55364e-06 5.52753e-06 5.49719e-06 5.46215e-06 5.42192e-06 5.37602e-06 5.32397e-06 5.26531e-06 5.19959e-06 5.12642e-06 5.04545e-06 4.95641e-06 4.85907e-06 4.75333e-06 4.63916e-06 4.51663e-06 4.38595e-06 4.24742e-06 4.10147e-06 3.94865e-06 3.7896e-06 3.6251e-06 3.45598e-06 3.28319e-06 3.10773e-06 2.93065e-06 2.75302e-06 2.57593e-06 2.40047e-06 2.22768e-06 2.05857e-06 1.89406e-06 1.73501e-06 1.58219e-06 1.43624e-06 1.29771e-06 1.16703e-06 1.04451e-06 9.30332e-07 8.2459e-07 7.27256e-07 6.3821e-07 5.57244e-07 4.84074e-07 4.18355e-07 3.59688e-07 3.07637e-07 2.61737e-07 2.21509e-07 1.86468e-07 1.56131e-07 1.30026e-07 1.07701e-07 8.87247e-08 7.26931e-08 5.92319e-08 4.7998e-08 3.86799e-08 3.0998e-08 2.47037e-08 1.95776e-08 1.54284e-08 1.20903e-08 9.42119e-09 7.2999e-09 5.62428e-09 4.30872e-09 3.28215e-09 2.48594e-09 1.87215e-09 1.40186e-09 1.0437e-09 7.726e-10 5.68637e-10 4.16115e-10 3.02751e-10 2.19001e-10 1.57503e-10 1.12616e-10 8.00481e-11 5.65576e-11 3.97098e-11 2.76889e-11 1.91478e-11 1.30914e-11 8.78584e-12 5.68817e-12 3.39134e-12 1.58093e-12 0 
0 2.26905e-12 4.86713e-12 8.16259e-12 1.26061e-11 1.8781e-11 2.74652e-11 3.97098e-11 5.69401e-11 8.10848e-11 1.14744e-10 1.61401e-10 2.25698e-10 3.13775e-10 4.33702e-10 5.96012e-10 8.14354e-10 1.10629e-09 1.49428e-09 2.00678e-09 2.67964e-09 3.55771e-09 4.69659e-09 6.1648e-09 8.04607e-09 1.0442e-08 1.34747e-08 1.72903e-08 2.20616e-08 2.79917e-08 3.53172e-08 4.43114e-08 5.52871e-08 6.85993e-08 8.46471e-08 1.03875e-07 1.26772e-07 1.53873e-07 1.85754e-07 2.23029e-07 2.66345e-07 3.16374e-07 3.73804e-07 4.39327e-07 5.13627e-07 5.97365e-07 6.91164e-07 7.95591e-07 9.1114e-07 1.03821e-06 1.17711e-06 1.328e-06 1.49091e-06 1.66573e-06 1.85219e-06 2.04983e-06 2.25806e-06 2.47609e-06 2.70299e-06 2.93768e-06 3.17895e-06 3.42544e-06 3.67575e-06 3.92838e-06 4.18178e-06 4.4344e-06 4.68471e-06 4.93121e-06 5.17248e-06 5.40717e-06 5.63407e-06 5.8521e-06 6.06033e-06 6.25797e-06 6.44443e-06 6.61925e-06 6.78216e-06 6.93305e-06 7.07194e-06 7.19902e-06 7.31457e-06 7.419e-06 7.51279e-06 7.59653e-06 7.67083e-06 7.73635e-06 7.79378e-06 7.84381e-06 7.88713e-06 7.92441e-06 7.95629e-06 7.98339e-06 8.00628e-06 8.02551e-06 8.04156e-06 8.05487e-06 8.06585e-06 8.07484e-06 8.08217e-06 8.0881e-06 8.09287e-06 8.09669e-06 8.09972e-06 8.10212e-06 8.104e-06 8.10546e-06 8.1066e-06 8.10748e-06 8.10815e-06 8.10867e-06 8.10905e-06 8.10935e-06 8.10956e-06 8.10973e-06 8.10985e-06 8.10993e-06 8.11e-06 8.11004e-06 8.11008e-06 8.1101e-06 8.11012e-06 8.11013e-06 8.11014e-06 8.11015e-06 8.11015e-06 8.11015e-06 8.11015e-06 8.11016e-06 8.11016e-06 8.11015e-06 8.11015e-06 8.11015e-06 8.11015e-06 8.11014e-06 8.11013e-06 8.11012e-06 8.1101e-06 8.11008e-06 8.11004e-06 8.11e-06 8.10993e-06 8.10985e-06 8.10973e-06 8.10956e-06 8.10935e-06 8.10905e-06 8.10867e-06 8.10815e-06 8.10748e-06 8.1066e-06 8.10546e-06 8.104e-06 8.10212e-06 8.09972e-06 8.09669e-06 8.09287e-06 8.0881e-06 8.08217e-06 8.07484e-06 8.06585e-06 8.05487e-06 8.04156e-06 8.02551e-06 8.00628e-06 7.98339e-06 7.95629e-06 7.92441e-06 7.88713e-06 7.84381e-06 7.79378e-06 7.73635e-06 7.67083e-06 7.59653e-06 7.51279e-06 7.419e-06 7.31457e-06 7.19902e-06 7.07194e-06 6.93305e-06 6.78216e-06 6.61925e-06 6.44443e-06 6.25797e-06 6.06033e-06 5.8521e-06 5.63407e-06 5.40717e-06 5.17248e-06 4.93121e-06 4.68471e-06 4.4344e-06 4.18178e-06 3.92838e-06 3.67575e-06 3.42544e-06 3.17895e-06 2.93768e-06 2.70299e-06 2.47609e-06 2.25806e-06 2.04983e-06 1.85219e-06 1.66573e-06 1.49091e-06 1.328e-06 1.17711e-06 1.03821e-06 9.1114e-07 7.95591e-07 6.91164e-07 5.97365e-07 5.13627e-07 4.39327e-07 3.73804e-07 3.16374e-07 2.66345e-07 2.23029e-07 1.85754e-07 1.53873e-07 1.26772e-07 1.03875e-07 8.46471e-08 6.85993e-08 5.52871e-08 4.43114e-08 3.53172e-08 2.79917e-08 2.20616e-08 1.72903e-08 1.34747e-08 1.0442e-08 8.04607e-09 6.1648e-09 4.69659e-09 3.55771e-09 2.67964e-09 2.00678e-09 1.49428e-09 1.10629e-09 8.14354e-10 5.96012e-10 4.33702e-10 3.13775e-10 2.25698e-10 1.61401e-10 1.14744e-10 8.10848e-11 5.69401e-11 3.97098e-11 2.74652e-11 1.8781e-11 1.26061e-11 8.16259e-12 4.86713e-12 2.26905e-12 0 
0 3.23427e-12 6.93704e-12 1.16328e-11 1.7963e-11 2.67578e-11 3.91243e-11 5.65576e-11 8.10848e-11 1.15449e-10 1.63346e-10 2.2973e-10 3.21196e-10 4.46471e-10 6.17023e-10 8.47812e-10 1.15823e-09 1.57322e-09 2.12466e-09 2.85298e-09 3.80907e-09 5.05656e-09 6.6744e-09 8.7598e-09 1.14316e-08 1.48338e-08 1.914e-08 2.4557e-08 3.13301e-08 3.97473e-08 5.0144e-08 6.29077e-08 7.84818e-08 9.73697e-08 1.20137e-07 1.47413e-07 1.79892e-07 2.1833e-07 2.63545e-07 3.16405e-07 3.77828e-07 4.48765e-07 5.3019e-07 6.23083e-07 7.28414e-07 8.47117e-07 9.80075e-07 1.12809e-06 1.29186e-06 1.47196e-06 1.6688e-06 1.88263e-06 2.11349e-06 2.36122e-06 2.62543e-06 2.90548e-06 3.20052e-06 3.50945e-06 3.83094e-06 4.16346e-06 4.50529e-06 4.85453e-06 5.20917e-06 5.56708e-06 5.9261e-06 6.28401e-06 6.63865e-06 6.98789e-06 7.32972e-06 7.66224e-06 7.98373e-06 8.29266e-06 8.5877e-06 8.86775e-06 9.13196e-06 9.37969e-06 9.61055e-06 9.82438e-06 1.00212e-05 1.02013e-05 1.03651e-05 1.05131e-05 1.06461e-05 1.07648e-05 1.08701e-05 1.0963e-05 1.10444e-05 1.11154e-05 1.11768e-05 1.12296e-05 1.12749e-05 1.13133e-05 1.13458e-05 1.1373e-05 1.13958e-05 1.14147e-05 1.14303e-05 1.1443e-05 1.14534e-05 1.14619e-05 1.14686e-05 1.1474e-05 1.14783e-05 1.14818e-05 1.14844e-05 1.14865e-05 1.14881e-05 1.14894e-05 1.14903e-05 1.14911e-05 1.14916e-05 1.1492e-05 1.14923e-05 1.14926e-05 1.14927e-05 1.14929e-05 1.1493e-05 1.1493e-05 1.14931e-05 1.14931e-05 1.14931e-05 1.14931e-05 1.14932e-05 1.14932e-05 1.14932e-05 1.14932e-05 1.14932e-05 1.14932e-05 1.14932e-05 1.14932e-05 1.14932e-05 1.14932e-05 1.14932e-05 1.14932e-05 1.14931e-05 1.14931e-05 1.14931e-05 1.14931e-05 1.1493e-05 1.1493e-05 1.14929e-05 1.14927e-05 1.14926e-05 1.14923e-05 1.1492e-05 1.14916e-05 1.14911e-05 1.14903e-05 1.14894e-05 1.14881e-05 1.14865e-05 1.14844e-05 1.14818e-05 1.14783e-05 1.1474e-05 1.14686e-05 1.14619e-05 1.14534e-05 1.1443e-05 1.14303e-05 1.14147e-05 1.13958e-05 1.1373e-05 1.13458e-05 1.13133e-05 1.12749e-05 1.12296e-05 1.11768e-05 1.11154e-05 1.10444e-05 1.0963e-05 1.08701e-05 1.07648e-05 1.06461e-05 1.05131e-05 1.03651e-05 1.02013e-05 1.00212e-05 9.82438e-06 9.61055e-06 9.37969e-06 9.13196e-06 8.86775e-06 8.5877e-06 8.29266e-06 7.98373e-06 7.66224e-06 7.32972e-06 6.98789e-06 6.63865e-06 6.28401e-06 5.9261e-06 5.56708e-06 5.20917e-06 4.85453e-06 4.50529e-06 4.16346e-06 3.83094e-06 3.50945e-06 3.20052e-06 2.90548e-06 2.62543e-06 2.36122e-06 2.11349e-06 1.88263e-06 1.6688e-06 1.47196e-06 1.29186e-06 1.12809e-06 9.80075e-07 8.47117e-07 7.28414e-07 6.23083e-07 5.3019e-07 4.48765e-07 3.77828e-07 3.16405e-07 2.63545e-07 2.1833e-07 1.79892e-07 1.47413e-07 1.20137e-07 9.73697e-08 7.84818e-08 6.29077e-08 5.0144e-08 3.97473e-08 3.13301e-08 2.4557e-08 1.914e-08 1.48338e-08 1.14316e-08 8.7598e-09 6.6744e-09 5.05656e-09 3.80907e-09 2.85298e-09 2.12466e-09 1.57322e-09 1.15823e-09 8.47812e-10 6.17023e-10 4.46471e-10 3.21196e-10 2.2973e-10 1.63346e-10 1.15449e-10 8.10848e-11 5.65576e-11 3.91243e-11 2.67578e-11 1.7963e-11 1.16328e-11 6.93704e-12 3.23427e-12 0 