<?xml version="1.0"?>
<VTKFile type="ImageData" version="0.1" byte_order="LittleEndian">
  <ImageData WholeExtent="0 255 0 255 0 0" Origin="0 0 0" Spacing="1 1 1">
  <Piece Extent="0 255 0 255 0 0">
    <PointData>
      <DataArray type="Float32" Name="scalar_data" format="ascii" >0 0 0 0 0 0 0 0 0 0 0 0 0 0 0 0 0 0 0 0 0 0 0 0 0 0 0 0 0 0 0 0 0 0 0 0 0 0 0 0 0 0 0 0 0 0 0 0 0 0 0 0 0 0 0 0 0 0 0 0 0 0 0 0 0 0 0 0 0 0 0 0 0 0 0 0 0 0 0 0 0 0 0 0 0 0 0 0 0 0 0 0 0 0 0 0 0 0 0 0 0 0 0 0 0 0 0 0 0 0 0 0 0 0 0 0 0 0 0 0 0 0 0 0 0 0 0 0 0 0 0 0 0 0 0 0 0 0 0 0 0 0 0 0 0 0 0 0 0 0 0 0 0 0 0 0 0 0 0 0 0 0 0 0 0 0 0 0 0 0 0 0 0 0 0 0 0 0 0 0 0 0 0 0 0 0 0 0 0 0 0 0 0 0 0 0 0 0 0 0 0 0 0 0 0 0 0 0 0 0 0 0 0 0 0 0 0 0 0 0 0 0 0 0 0 0 0 0 0 0 0 0 0 0 0 0 0 0 0 0 0 0 0 0 0 0 0 0 0 0 0 0 0 0 0 0 
0 4.28796e-14 9.24327e-14 1.56196e-13 2.43517e-13 3.66687e-13 5.42346e-13 7.93304e-13 1.15091e-12 1.65813e-12 2.3736e-12 3.37685e-12 4.77506e-12 6.71166e-12 9.37723e-12 1.30233e-11 1.79792e-11 2.46735e-11 3.36593e-11 4.56451e-11 6.15325e-11 8.24592e-11 1.09851e-10 1.45479e-10 1.91529e-10 2.50677e-10 3.26169e-10 4.21916e-10 5.42588e-10 6.93717e-10 8.81799e-10 1.11439e-09 1.40022e-09 1.74926e-09 2.1728e-09 2.6835e-09 3.29541e-09 4.02396e-09 4.88592e-09 5.89927e-09 7.0831e-09 8.45733e-09 1.00425e-08 1.18595e-08 1.3929e-08 1.62713e-08 1.89055e-08 2.18492e-08 2.5118e-08 2.8725e-08 3.26799e-08 3.69887e-08 4.16536e-08 4.66719e-08 5.20363e-08 5.77343e-08 6.37484e-08 7.0056e-08 7.66294e-08 8.34365e-08 9.0441e-08 9.7603e-08 1.0488e-07 1.12226e-07 1.19596e-07 1.26942e-07 1.34219e-07 1.41381e-07 1.48385e-07 1.55192e-07 1.61766e-07 1.68073e-07 1.74087e-07 1.79785e-07 1.8515e-07 1.90168e-07 1.94833e-07 1.99142e-07 2.03097e-07 2.06704e-07 2.09972e-07 2.12916e-07 2.1555e-07 2.17893e-07 2.19962e-07 2.21779e-07 2.23364e-07 2.24738e-07 2.25922e-07 2.26936e-07 2.27798e-07 2.28526e-07 2.29138e-07 2.29649e-07 2.30072e-07 2.30421e-07 2.30707e-07 2.3094e-07 2.31128e-07 2.31279e-07 2.314e-07 2.31495e-07 2.31571e-07 2.3163e-07 2.31676e-07 2.31712e-07 2.31739e-07 2.3176e-07 2.31776e-07 2.31788e-07 2.31797e-07 2.31804e-07 2.31809e-07 2.31812e-07 2.31815e-07 2.31817e-07 2.31818e-07 2.31819e-07 2.3182e-07 2.3182e-07 2.31821e-07 2.31821e-07 2.31821e-07 2.31821e-07 2.31821e-07 2.31822e-07 2.31822e-07 2.31822e-07 2.31822e-07 2.31822e-07 2.31822e-07 2.31821e-07 2.31821e-07 2.31821e-07 2.31821e-07 2.31821e-07 2.3182e-07 2.3182e-07 2.31819e-07 2.31818e-07 2.31817e-07 2.31815e-07 2.31812e-07 2.31809e-07 2.31804e-07 2.31797e-07 2.31788e-07 2.31776e-07 2.3176e-07 2.31739e-07 2.31712e-07 2.31676e-07 2.3163e-07 2.31571e-07 2.31495e-07 2.314e-07 2.31279e-07 2.31128e-07 2.3094e-07 2.30707e-07 2.30421e-07 2.30072e-07 2.29649e-07 2.29138e-07 2.28526e-07 2.27798e-07 2.26936e-07 2.25922e-07 2.24738e-07 2.23364e-07 2.21779e-07 2.19962e-07 2.17893e-07 2.1555e-07 2.12916e-07 2.09972e-07 2.06704e-07 2.03097e-07 1.99142e-07 1.94833e-07 1.90168e-07 1.8515e-07 1.79785e-07 1.74087e-07 1.68073e-07 1.61766e-07 1.55192e-07 1.48385e-07 1.41381e-07 1.34219e-07 1.26942e-07 1.19596e-07 1.12226e-07 1.0488e-07 9.7603e-08 9.0441e-08 8.34365e-08 7.66294e-08 7.0056e-08 6.37484e-08 5.77343e-08 5.20363e-08 4.66719e-08 4.16536e-08 3.69887e-08 3.26799e-08 2.8725e-08 2.5118e-08 2.18492e-08 1.89055e-08 1.62713e-08 1.3929e-08 1.18595e-08 1.00425e-08 8.45733e-09 7.0831e-09 5.89927e-09 4.88592e-09 4.02396e-09 3.29541e-09 2.6835e-09 2.1728e-09 1.74926e-09 1.40022e-09 1.11439e-09 8.81799e-10 6.93717e-10 5.42588e-10 4.21916e-10 3.26169e-10 2.50677e-10 1.91529e-10 1.45479e-10 1.09851e-10 8.24592e-11 6.15325e-11 4.56451e-11 3.36593e-11 2.46735e-11 1.79792e-11 1.30233e-11 9.37723e-12 6.71166e-12 4.77506e-12 3.37685e-12 2.3736e-12 1.65813e-12 1.15091e-12 7.93304e-13 5.42346e-13 3.66687e-13 2.43517e-13 1.56196e-13 9.24327e-14 4.28796e-14 0 
0 9.24327e-14 1.99244e-13 3.36672e-13 5.24856e-13 7.90268e-13 1.16875e-12 1.70943e-12 2.47981e-12 3.57241e-12 5.1135e-12 7.27429e-12 1.02855e-11 1.44559e-11 2.01956e-11 2.80461e-11 3.87163e-11 5.31282e-11 7.2472e-11 9.82724e-11 1.32469e-10 1.7751e-10 2.36461e-10 3.13135e-10 4.12232e-10 5.39507e-10 7.01943e-10 9.0795e-10 1.16757e-09 1.49271e-09 1.89732e-09 2.39767e-09 3.0125e-09 3.76327e-09 4.67425e-09 5.77264e-09 7.08867e-09 8.6555e-09 1.05092e-08 1.26883e-08 1.5234e-08 1.8189e-08 2.15976e-08 2.55044e-08 2.99541e-08 3.49901e-08 4.06535e-08 4.69824e-08 5.40101e-08 6.17645e-08 7.02667e-08 7.95297e-08 8.95579e-08 1.00346e-07 1.11877e-07 1.24126e-07 1.37054e-07 1.50613e-07 1.64743e-07 1.79375e-07 1.94431e-07 2.09826e-07 2.25467e-07 2.41258e-07 2.57099e-07 2.7289e-07 2.88532e-07 3.03926e-07 3.18983e-07 3.33615e-07 3.47745e-07 3.61304e-07 3.74232e-07 3.8648e-07 3.98012e-07 4.088e-07 4.18828e-07 4.28091e-07 4.36593e-07 4.44348e-07 4.51375e-07 4.57704e-07 4.63368e-07 4.68403e-07 4.72853e-07 4.7676e-07 4.80169e-07 4.83124e-07 4.85669e-07 4.87848e-07 4.89702e-07 4.91269e-07 4.92585e-07 4.93683e-07 4.94594e-07 4.95345e-07 4.9596e-07 4.9646e-07 4.96865e-07 4.9719e-07 4.9745e-07 4.97656e-07 4.97818e-07 4.97945e-07 4.98045e-07 4.98121e-07 4.9818e-07 4.98225e-07 4.98259e-07 4.98285e-07 4.98304e-07 4.98319e-07 4.9833e-07 4.98337e-07 4.98343e-07 4.98347e-07 4.9835e-07 4.98353e-07 4.98354e-07 4.98355e-07 4.98356e-07 4.98356e-07 4.98357e-07 4.98357e-07 4.98357e-07 4.98357e-07 4.98357e-07 4.98358e-07 4.98358e-07 4.98357e-07 4.98357e-07 4.98357e-07 4.98357e-07 4.98357e-07 4.98356e-07 4.98356e-07 4.98355e-07 4.98354e-07 4.98353e-07 4.9835e-07 4.98347e-07 4.98343e-07 4.98337e-07 4.9833e-07 4.98319e-07 4.98304e-07 4.98285e-07 4.98259e-07 4.98225e-07 4.9818e-07 4.98121e-07 4.98045e-07 4.97945e-07 4.97818e-07 4.97656e-07 4.9745e-07 4.9719e-07 4.96865e-07 4.9646e-07 4.9596e-07 4.95345e-07 4.94594e-07 4.93683e-07 4.92585e-07 4.91269e-07 4.89702e-07 4.87848e-07 4.85669e-07 4.83124e-07 4.80169e-07 4.7676e-07 4.72853e-07 4.68403e-07 4.63368e-07 4.57704e-07 4.51375e-07 4.44348e-07 4.36593e-07 4.28091e-07 4.18828e-07 4.088e-07 3.98012e-07 3.8648e-07 3.74232e-07 3.61304e-07 3.47745e-07 3.33615e-07 3.18983e-07 3.03926e-07 2.88532e-07 2.7289e-07 2.57099e-07 2.41258e-07 2.25467e-07 2.09826e-07 1.94431e-07 1.79375e-07 1.64743e-07 1.50613e-07 1.37054e-07 1.24126e-07 1.11877e-07 1.00346e-07 8.95579e-08 7.95297e-08 7.02667e-08 6.17645e-08 5.40101e-08 4.69824e-08 4.06535e-08 3.49901e-08 2.99541e-08 2.55044e-08 2.15976e-08 1.8189e-08 1.5234e-08 1.26883e-08 1.05092e-08 8.6555e-09 7.08867e-09 5.77264e-09 4.67425e-09 3.76327e-09 3.0125e-09 2.39767e-09 1.89732e-09 1.49271e-09 1.16757e-09 9.0795e-10 7.01943e-10 5.39507e-10 4.12232e-10 3.13135e-10 2.36461e-10 1.7751e-10 1.32469e-10 9.82724e-11 7.2472e-11 5.31282e-11 3.87163e-11 2.80461e-11 2.01956e-11 1.44559e-11 1.02855e-11 7.27429e-12 5.1135e-12 3.57241e-12 2.47981e-12 1.70943e-12 1.16875e-12 7.90268e-13 5.24856e-13 3.36672e-13 1.99244e-13 9.24327e-14 0 
0 1.56196e-13 3.36672e-13 5.68845e-13 8.86716e-13 1.33497e-12 1.9741e-12 2.887e-12 4.18756e-12 6.03188e-12 8.63293e-12 1.22795e-11 1.73606e-11 2.4397e-11 3.40802e-11 4.73229e-11 6.53201e-11 8.96259e-11 1.22246e-10 1.6575e-10 2.23406e-10 2.99338e-10 3.98712e-10 5.27949e-10 6.94967e-10 9.09457e-10 1.18318e-09 1.5303e-09 1.96772e-09 2.51548e-09 3.19708e-09 4.0399e-09 5.0755e-09 6.33997e-09 7.87416e-09 9.72388e-09 1.19399e-08 1.45782e-08 1.76992e-08 2.13682e-08 2.56539e-08 3.06285e-08 3.63664e-08 4.29427e-08 5.04325e-08 5.89088e-08 6.84408e-08 7.90923e-08 9.09197e-08 1.0397e-07 1.18277e-07 1.33865e-07 1.5074e-07 1.68893e-07 1.88297e-07 2.08907e-07 2.3066e-07 2.53473e-07 2.77247e-07 3.01867e-07 3.272e-07 3.53101e-07 3.79418e-07 4.05986e-07 4.32639e-07 4.59207e-07 4.85523e-07 5.11425e-07 5.36758e-07 5.61377e-07 5.85151e-07 6.07965e-07 6.29718e-07 6.50328e-07 6.69732e-07 6.87884e-07 7.04759e-07 7.20347e-07 7.34655e-07 7.47705e-07 7.59532e-07 7.70184e-07 7.79716e-07 7.88192e-07 7.95682e-07 8.02258e-07 8.07996e-07 8.12971e-07 8.17256e-07 8.20925e-07 8.24046e-07 8.26685e-07 8.28901e-07 8.3075e-07 8.32285e-07 8.33549e-07 8.34585e-07 8.35427e-07 8.36109e-07 8.36657e-07 8.37094e-07 8.37441e-07 8.37715e-07 8.3793e-07 8.38097e-07 8.38226e-07 8.38325e-07 8.38401e-07 8.38459e-07 8.38502e-07 8.38535e-07 8.38559e-07 8.38577e-07 8.38591e-07 8.386e-07 8.38607e-07 8.38612e-07 8.38616e-07 8.38619e-07 8.3862e-07 8.38622e-07 8.38623e-07 8.38623e-07 8.38624e-07 8.38624e-07 8.38624e-07 8.38624e-07 8.38624e-07 8.38624e-07 8.38624e-07 8.38624e-07 8.38624e-07 8.38624e-07 8.38623e-07 8.38623e-07 8.38622e-07 8.3862e-07 8.38619e-07 8.38616e-07 8.38612e-07 8.38607e-07 8.386e-07 8.38591e-07 8.38577e-07 8.38559e-07 8.38535e-07 8.38502e-07 8.38459e-07 8.38401e-07 8.38325e-07 8.38226e-07 8.38097e-07 8.3793e-07 8.37715e-07 8.37441e-07 8.37094e-07 8.36657e-07 8.36109e-07 8.35427e-07 8.34585e-07 8.33549e-07 8.32285e-07 8.3075e-07 8.28901e-07 8.26685e-07 8.24046e-07 8.20925e-07 8.17256e-07 8.12971e-07 8.07996e-07 8.02258e-07 7.95682e-07 7.88192e-07 7.79716e-07 7.70184e-07 7.59532e-07 7.47705e-07 7.34655e-07 7.20347e-07 7.04759e-07 6.87884e-07 6.69732e-07 6.50328e-07 6.29718e-07 6.07965e-07 5.85151e-07 5.61377e-07 5.36758e-07 5.11425e-07 4.85523e-07 4.59207e-07 4.32639e-07 4.05986e-07 3.79418e-07 3.53101e-07 3.272e-07 3.01867e-07 2.77247e-07 2.53473e-07 2.3066e-07 2.08907e-07 1.88297e-07 1.68893e-07 1.5074e-07 1.33865e-07 1.18277e-07 1.0397e-07 9.09197e-08 7.90923e-08 6.84408e-08 5.89088e-08 5.04325e-08 4.29427e-08 3.63664e-08 3.06285e-08 2.56539e-08 2.13682e-08 1.76992e-08 1.45782e-08 1.19399e-08 9.72388e-09 7.87416e-09 6.33997e-09 5.0755e-09 4.0399e-09 3.19708e-09 2.51548e-09 1.96772e-09 1.5303e-09 1.18318e-09 9.09457e-10 6.94967e-10 5.27949e-10 3.98712e-10 2.99338e-10 2.23406e-10 1.6575e-10 1.22246e-10 8.96259e-11 6.53201e-11 4.73229e-11 3.40802e-11 2.4397e-11 1.73606e-11 1.22795e-11 8.63293e-12 6.03188e-12 4.18756e-12 2.887e-12 1.9741e-12 1.33497e-12 8.86716e-13 5.68845e-13 3.36672e-13 1.56196e-13 0 
0 2.43517e-13 5.24856e-13 8.86716e-13 1.38204e-12 2.08041e-12 3.07598e-12 4.49777e-12 6.52299e-12 9.39452e-12 1.34436e-11 1.91195e-11 2.70271e-11 3.79761e-11 5.30417e-11 7.36424e-11 1.01636e-10 1.39437e-10 1.90162e-10 2.57804e-10 3.47439e-10 4.65473e-10 6.1993e-10 8.2078e-10 1.08032e-09 1.41359e-09 1.83885e-09 2.37809e-09 3.05754e-09 3.9083e-09 4.96684e-09 6.27564e-09 7.88367e-09 9.8469e-09 1.22287e-08 1.51001e-08 1.854e-08 2.26349e-08 2.74789e-08 3.31727e-08 3.98233e-08 4.75425e-08 5.64454e-08 6.66488e-08 7.82688e-08 9.14186e-08 1.06205e-07 1.22728e-07 1.41074e-07 1.61315e-07 1.83507e-07 2.07683e-07 2.33855e-07 2.62007e-07 2.92099e-07 3.24061e-07 3.57793e-07 3.9317e-07 4.30037e-07 4.68213e-07 5.07495e-07 5.4766e-07 5.88466e-07 6.29663e-07 6.70991e-07 7.12188e-07 7.52994e-07 7.93158e-07 8.3244e-07 8.70617e-07 9.07483e-07 9.4286e-07 9.76593e-07 1.00855e-06 1.03865e-06 1.0668e-06 1.09297e-06 1.11715e-06 1.13934e-06 1.15958e-06 1.17793e-06 1.19445e-06 1.20924e-06 1.22238e-06 1.234e-06 1.24421e-06 1.25311e-06 1.26083e-06 1.26748e-06 1.27317e-06 1.27802e-06 1.28211e-06 1.28555e-06 1.28843e-06 1.29081e-06 1.29277e-06 1.29438e-06 1.29569e-06 1.29675e-06 1.2976e-06 1.29828e-06 1.29882e-06 1.29924e-06 1.29957e-06 1.29983e-06 1.30003e-06 1.30019e-06 1.30031e-06 1.3004e-06 1.30046e-06 1.30051e-06 1.30055e-06 1.30058e-06 1.3006e-06 1.30062e-06 1.30063e-06 1.30063e-06 1.30064e-06 1.30064e-06 1.30065e-06 1.30065e-06 1.30065e-06 1.30065e-06 1.30065e-06 1.30065e-06 1.30065e-06 1.30065e-06 1.30065e-06 1.30065e-06 1.30065e-06 1.30065e-06 1.30065e-06 1.30065e-06 1.30065e-06 1.30065e-06 1.30065e-06 1.30065e-06 1.30064e-06 1.30064e-06 1.30063e-06 1.30063e-06 1.30062e-06 1.3006e-06 1.30058e-06 1.30055e-06 1.30051e-06 1.30046e-06 1.3004e-06 1.30031e-06 1.30019e-06 1.30003e-06 1.29983e-06 1.29957e-06 1.29924e-06 1.29882e-06 1.29828e-06 1.2976e-06 1.29675e-06 1.29569e-06 1.29438e-06 1.29277e-06 1.29081e-06 1.28843e-06 1.28555e-06 1.28211e-06 1.27802e-06 1.27317e-06 1.26748e-06 1.26083e-06 1.25311e-06 1.24421e-06 1.234e-06 1.22238e-06 1.20924e-06 1.19445e-06 1.17793e-06 1.15958e-06 1.13934e-06 1.11715e-06 1.09297e-06 1.0668e-06 1.03865e-06 1.00855e-06 9.76593e-07 9.4286e-07 9.07483e-07 8.70617e-07 8.3244e-07 7.93158e-07 7.52994e-07 7.12188e-07 6.70991e-07 6.29663e-07 5.88466e-07 5.4766e-07 5.07495e-07 4.68213e-07 4.30037e-07 3.9317e-07 3.57793e-07 3.24061e-07 2.92099e-07 2.62007e-07 2.33855e-07 2.07683e-07 1.83507e-07 1.61315e-07 1.41074e-07 1.22728e-07 1.06205e-07 9.14186e-08 7.82688e-08 6.66488e-08 5.64454e-08 4.75425e-08 3.98233e-08 3.31727e-08 2.74789e-08 2.26349e-08 1.854e-08 1.51001e-08 1.22287e-08 9.8469e-09 7.88367e-09 6.27564e-09 4.96684e-09 3.9083e-09 3.05754e-09 2.37809e-09 1.83885e-09 1.41359e-09 1.08032e-09 8.2078e-10 6.1993e-10 4.65473e-10 3.47439e-10 2.57804e-10 1.90162e-10 1.39437e-10 1.01636e-10 7.36424e-11 5.30417e-11 3.79761e-11 2.70271e-11 1.91195e-11 1.34436e-11 9.39452e-12 6.52299e-12 4.49777e-12 3.07598e-12 2.08041e-12 1.38204e-12 8.86716e-13 5.24856e-13 2.43517e-13 0 
0 3.66687e-13 7.90268e-13 1.33497e-12 2.08041e-12 3.13119e-12 4.62886e-12 6.76729e-12 9.81277e-12 1.41302e-11 2.0217e-11 2.87479e-11 4.06314e-11 5.70826e-11 7.97158e-11 1.1066e-10 1.52702e-10 2.09466e-10 2.85626e-10 3.87172e-10 5.21716e-10 6.98865e-10 9.30647e-10 1.23201e-09 1.62138e-09 2.12132e-09 2.75917e-09 3.56787e-09 4.58676e-09 5.86239e-09 7.44941e-09 9.41141e-09 1.18218e-08 1.47643e-08 1.83338e-08 2.26367e-08 2.7791e-08 3.39263e-08 4.11833e-08 4.97128e-08 5.9675e-08 7.1237e-08 8.45711e-08 9.98519e-08 1.17253e-07 1.36944e-07 1.59085e-07 1.83824e-07 2.11292e-07 2.41596e-07 2.74818e-07 3.1101e-07 3.50187e-07 3.92329e-07 4.37372e-07 4.85212e-07 5.35702e-07 5.88652e-07 6.43831e-07 7.00968e-07 7.5976e-07 8.19871e-07 8.80944e-07 9.426e-07 1.00445e-06 1.06611e-06 1.12718e-06 1.18729e-06 1.24608e-06 1.30322e-06 1.3584e-06 1.41135e-06 1.46184e-06 1.50968e-06 1.55472e-06 1.59686e-06 1.63604e-06 1.67223e-06 1.70546e-06 1.73576e-06 1.76323e-06 1.78797e-06 1.81011e-06 1.8298e-06 1.8472e-06 1.86248e-06 1.87581e-06 1.88738e-06 1.89734e-06 1.90587e-06 1.91313e-06 1.91926e-06 1.92442e-06 1.92872e-06 1.93229e-06 1.93523e-06 1.93764e-06 1.9396e-06 1.94119e-06 1.94246e-06 1.94348e-06 1.94429e-06 1.94493e-06 1.94543e-06 1.94582e-06 1.94612e-06 1.94635e-06 1.94653e-06 1.94666e-06 1.94677e-06 1.94684e-06 1.9469e-06 1.94694e-06 1.94697e-06 1.94699e-06 1.94701e-06 1.94702e-06 1.94703e-06 1.94704e-06 1.94704e-06 1.94704e-06 1.94705e-06 1.94705e-06 1.94705e-06 1.94705e-06 1.94705e-06 1.94705e-06 1.94705e-06 1.94705e-06 1.94705e-06 1.94705e-06 1.94705e-06 1.94705e-06 1.94705e-06 1.94705e-06 1.94704e-06 1.94704e-06 1.94704e-06 1.94703e-06 1.94702e-06 1.94701e-06 1.94699e-06 1.94697e-06 1.94694e-06 1.9469e-06 1.94684e-06 1.94677e-06 1.94666e-06 1.94653e-06 1.94635e-06 1.94612e-06 1.94582e-06 1.94543e-06 1.94493e-06 1.94429e-06 1.94348e-06 1.94246e-06 1.94119e-06 1.9396e-06 1.93764e-06 1.93523e-06 1.93229e-06 1.92872e-06 1.92442e-06 1.91926e-06 1.91313e-06 1.90587e-06 1.89734e-06 1.88738e-06 1.87581e-06 1.86248e-06 1.8472e-06 1.8298e-06 1.81011e-06 1.78797e-06 1.76323e-06 1.73576e-06 1.70546e-06 1.67223e-06 1.63604e-06 1.59686e-06 1.55472e-06 1.50968e-06 1.46184e-06 1.41135e-06 1.3584e-06 1.30322e-06 1.24608e-06 1.18729e-06 1.12718e-06 1.06611e-06 1.00445e-06 9.426e-07 8.80944e-07 8.19871e-07 7.5976e-07 7.00968e-07 6.43831e-07 5.88652e-07 5.35702e-07 4.85212e-07 4.37372e-07 3.92329e-07 3.50187e-07 3.1101e-07 2.74818e-07 2.41596e-07 2.11292e-07 1.83824e-07 1.59085e-07 1.36944e-07 1.17253e-07 9.98519e-08 8.45711e-08 7.1237e-08 5.9675e-08 4.97128e-08 4.11833e-08 3.39263e-08 2.7791e-08 2.26367e-08 1.83338e-08 1.47643e-08 1.18218e-08 9.41141e-09 7.44941e-09 5.86239e-09 4.58676e-09 3.56787e-09 2.75917e-09 2.12132e-09 1.62138e-09 1.23201e-09 9.30647e-10 6.98865e-10 5.21716e-10 3.87172e-10 2.85626e-10 2.09466e-10 1.52702e-10 1.1066e-10 7.97158e-11 5.70826e-11 4.06314e-11 2.87479e-11 2.0217e-11 1.41302e-11 9.81277e-12 6.76729e-12 4.62886e-12 3.13119e-12 2.08041e-12 1.33497e-12 7.90268e-13 3.66687e-13 0 
0 5.42346e-13 1.16875e-12 1.9741e-12 3.07598e-12 4.62886e-12 6.84168e-12 1.00006e-11 1.44986e-11 2.0874e-11 2.98607e-11 4.24536e-11 5.99924e-11 8.42688e-11 1.17662e-10 1.6331e-10 2.2532e-10 3.09031e-10 4.2133e-10 5.71038e-10 7.69366e-10 1.03046e-09 1.37203e-09 1.81608e-09 2.38973e-09 3.12618e-09 4.06567e-09 5.25668e-09 6.75705e-09 8.63526e-09 1.09717e-08 1.38599e-08 1.74077e-08 2.17384e-08 2.69914e-08 3.3323e-08 4.09068e-08 4.99331e-08 6.06087e-08 7.31554e-08 8.78082e-08 1.04813e-07 1.24422e-07 1.46893e-07 1.72481e-07 2.01433e-07 2.33986e-07 2.70357e-07 3.10737e-07 3.55284e-07 4.0412e-07 4.57317e-07 5.14901e-07 5.76839e-07 6.4304e-07 7.1335e-07 7.87552e-07 8.65368e-07 9.46457e-07 1.03042e-06 1.11682e-06 1.20515e-06 1.2949e-06 1.3855e-06 1.47639e-06 1.567e-06 1.65674e-06 1.74508e-06 1.83147e-06 1.91544e-06 1.99653e-06 2.07434e-06 2.14854e-06 2.21885e-06 2.28505e-06 2.34699e-06 2.40458e-06 2.45777e-06 2.50661e-06 2.55116e-06 2.59154e-06 2.62791e-06 2.66046e-06 2.68941e-06 2.715e-06 2.73747e-06 2.75708e-06 2.77409e-06 2.78874e-06 2.80129e-06 2.81196e-06 2.82099e-06 2.82857e-06 2.8349e-06 2.84016e-06 2.84449e-06 2.84803e-06 2.85092e-06 2.85326e-06 2.85514e-06 2.85664e-06 2.85783e-06 2.85877e-06 2.8595e-06 2.86008e-06 2.86052e-06 2.86086e-06 2.86113e-06 2.86132e-06 2.86147e-06 2.86159e-06 2.86167e-06 2.86173e-06 2.86178e-06 2.86181e-06 2.86183e-06 2.86185e-06 2.86186e-06 2.86187e-06 2.86188e-06 2.86188e-06 2.86189e-06 2.86189e-06 2.86189e-06 2.86189e-06 2.86189e-06 2.86189e-06 2.86189e-06 2.86189e-06 2.86189e-06 2.86189e-06 2.86189e-06 2.86189e-06 2.86189e-06 2.86189e-06 2.86188e-06 2.86188e-06 2.86187e-06 2.86186e-06 2.86185e-06 2.86183e-06 2.86181e-06 2.86178e-06 2.86173e-06 2.86167e-06 2.86159e-06 2.86147e-06 2.86132e-06 2.86113e-06 2.86086e-06 2.86052e-06 2.86008e-06 2.8595e-06 2.85877e-06 2.85783e-06 2.85664e-06 2.85514e-06 2.85326e-06 2.85092e-06 2.84803e-06 2.84449e-06 2.84016e-06 2.8349e-06 2.82857e-06 2.82099e-06 2.81196e-06 2.80129e-06 2.78874e-06 2.77409e-06 2.75708e-06 2.73747e-06 2.715e-06 2.68941e-06 2.66046e-06 2.62791e-06 2.59154e-06 2.55116e-06 2.50661e-06 2.45777e-06 2.40458e-06 2.34699e-06 2.28505e-06 2.21885e-06 2.14854e-06 2.07434e-06 1.99653e-06 1.91544e-06 1.83147e-06 1.74508e-06 1.65674e-06 1.567e-06 1.47639e-06 1.3855e-06 1.2949e-06 1.20515e-06 1.11682e-06 1.03042e-06 9.46457e-07 8.65368e-07 7.87552e-07 7.1335e-07 6.4304e-07 5.76839e-07 5.14901e-07 4.57317e-07 4.0412e-07 3.55284e-07 3.10737e-07 2.70357e-07 2.33986e-07 2.01433e-07 1.72481e-07 1.46893e-07 1.24422e-07 1.04813e-07 8.78082e-08 7.31554e-08 6.06087e-08 4.99331e-08 4.09068e-08 3.3323e-08 2.69914e-08 2.17384e-08 1.74077e-08 1.38599e-08 1.09717e-08 8.63526e-09 6.75705e-09 5.25668e-09 4.06567e-09 3.12618e-09 2.38973e-09 1.81608e-09 1.37203e-09 1.03046e-09 7.69366e-10 5.71038e-10 4.2133e-10 3.09031e-10 2.2532e-10 1.6331e-10 1.17662e-10 8.42688e-11 5.99924e-11 4.24536e-11 2.98607e-11 2.0874e-11 1.44986e-11 1.00006e-11 6.84168e-12 4.62886e-12 3.07598e-12 1.9741e-12 1.16875e-12 5.42346e-13 0 
0 7.93304e-13 1.70943e-12 2.887e-12 4.49777e-12 6.76729e-12 1.00006e-11 1.46155e-11 2.11852e-11 3.04954e-11 4.36165e-11 6.19996e-11 8.75983e-11 1.23025e-10 1.71747e-10 2.38339e-10 3.28786e-10 4.50866e-10 6.14612e-10 8.32871e-10 1.12197e-09 1.50251e-09 2.00027e-09 2.64729e-09 3.48304e-09 4.55581e-09 5.92419e-09 7.65868e-09 9.84344e-09 1.25781e-08 1.59795e-08 2.01837e-08 2.53476e-08 3.16502e-08 3.92943e-08 4.85072e-08 5.9541e-08 7.26723e-08 8.82017e-08 1.06451e-07 1.27763e-07 1.52493e-07 1.81009e-07 2.13684e-07 2.50888e-07 2.92982e-07 3.40308e-07 3.93181e-07 4.51879e-07 5.16632e-07 5.87615e-07 6.64935e-07 7.48626e-07 8.38643e-07 9.34851e-07 1.03703e-06 1.14486e-06 1.25794e-06 1.37577e-06 1.49778e-06 1.62332e-06 1.75167e-06 1.88208e-06 2.01373e-06 2.1458e-06 2.27745e-06 2.40785e-06 2.5362e-06 2.66174e-06 2.78376e-06 2.90159e-06 3.01467e-06 3.1225e-06 3.22467e-06 3.32088e-06 3.4109e-06 3.49459e-06 3.57191e-06 3.64289e-06 3.70764e-06 3.76634e-06 3.81922e-06 3.86654e-06 3.90864e-06 3.94584e-06 3.97851e-06 4.00703e-06 4.03176e-06 4.05307e-06 4.07132e-06 4.08685e-06 4.09998e-06 4.11102e-06 4.12023e-06 4.12787e-06 4.13418e-06 4.13934e-06 4.14354e-06 4.14694e-06 4.14968e-06 4.15186e-06 4.1536e-06 4.15497e-06 4.15604e-06 4.15688e-06 4.15752e-06 4.15802e-06 4.1584e-06 4.15869e-06 4.15891e-06 4.15907e-06 4.15919e-06 4.15928e-06 4.15935e-06 4.1594e-06 4.15944e-06 4.15946e-06 4.15948e-06 4.15949e-06 4.1595e-06 4.15951e-06 4.15951e-06 4.15952e-06 4.15952e-06 4.15952e-06 4.15952e-06 4.15952e-06 4.15952e-06 4.15952e-06 4.15952e-06 4.15952e-06 4.15952e-06 4.15952e-06 4.15952e-06 4.15951e-06 4.15951e-06 4.1595e-06 4.15949e-06 4.15948e-06 4.15946e-06 4.15944e-06 4.1594e-06 4.15935e-06 4.15928e-06 4.15919e-06 4.15907e-06 4.15891e-06 4.15869e-06 4.1584e-06 4.15802e-06 4.15752e-06 4.15688e-06 4.15604e-06 4.15497e-06 4.1536e-06 4.15186e-06 4.14968e-06 4.14694e-06 4.14354e-06 4.13934e-06 4.13418e-06 4.12787e-06 4.12023e-06 4.11102e-06 4.09998e-06 4.08685e-06 4.07132e-06 4.05307e-06 4.03176e-06 4.00703e-06 3.97851e-06 3.94584e-06 3.90864e-06 3.86654e-06 3.81922e-06 3.76634e-06 3.70764e-06 3.64289e-06 3.57191e-06 3.49459e-06 3.4109e-06 3.32088e-06 3.22467e-06 3.1225e-06 3.01467e-06 2.90159e-06 2.78376e-06 2.66174e-06 2.5362e-06 2.40785e-06 2.27745e-06 2.1458e-06 2.01373e-06 1.88208e-06 1.75167e-06 1.62332e-06 1.49778e-06 1.37577e-06 1.25794e-06 1.14486e-06 1.03703e-06 9.34851e-07 8.38643e-07 7.48626e-07 6.64935e-07 5.87615e-07 5.16632e-07 4.51879e-07 3.93181e-07 3.40308e-07 2.92982e-07 2.50888e-07 2.13684e-07 1.81009e-07 1.52493e-07 1.27763e-07 1.06451e-07 8.82017e-08 7.26723e-08 5.9541e-08 4.85072e-08 3.92943e-08 3.16502e-08 2.53476e-08 2.01837e-08 1.59795e-08 1.25781e-08 9.84344e-09 7.65868e-09 5.92419e-09 4.55581e-09 3.48304e-09 2.64729e-09 2.00027e-09 1.50251e-09 1.12197e-09 8.32871e-10 6.14612e-10 4.50866e-10 3.28786e-10 2.38339e-10 1.71747e-10 1.23025e-10 8.75983e-11 6.19996e-11 4.36165e-11 3.04954e-11 2.11852e-11 1.46155e-11 1.00006e-11 6.76729e-12 4.49777e-12 2.887e-12 1.70943e-12 7.93304e-13 0 
0 1.15091e-12 2.47981e-12 4.18756e-12 6.52299e-12 9.81277e-12 1.44986e-11 2.11852e-11 3.07026e-11 4.41872e-11 6.31881e-11 8.98042e-11 1.26861e-10 1.78135e-10 2.48643e-10 3.44993e-10 4.75837e-10 6.52414e-10 8.89221e-10 1.20482e-09 1.62279e-09 2.17287e-09 2.89231e-09 3.82734e-09 5.03495e-09 6.58485e-09 8.56157e-09 1.10669e-08 1.42221e-08 1.81711e-08 2.30823e-08 2.91521e-08 3.66064e-08 4.57036e-08 5.67362e-08 7.00315e-08 8.59531e-08 1.049e-07 1.27305e-07 1.53632e-07 1.84373e-07 2.20043e-07 2.61171e-07 3.08294e-07 3.61945e-07 4.22643e-07 4.90882e-07 5.67115e-07 6.51741e-07 7.45093e-07 8.4742e-07 9.58878e-07 1.07952e-06 1.20927e-06 1.34793e-06 1.4952e-06 1.65061e-06 1.81358e-06 1.9834e-06 2.15924e-06 2.34016e-06 2.52514e-06 2.71307e-06 2.90279e-06 3.09312e-06 3.28284e-06 3.47077e-06 3.65575e-06 3.83667e-06 4.01251e-06 4.18233e-06 4.3453e-06 4.50071e-06 4.64797e-06 4.78664e-06 4.91639e-06 5.03703e-06 5.14849e-06 5.25082e-06 5.34417e-06 5.4288e-06 5.50503e-06 5.57327e-06 5.63397e-06 5.68762e-06 5.73474e-06 5.77587e-06 5.81154e-06 5.84228e-06 5.86861e-06 5.89101e-06 5.90996e-06 5.92588e-06 5.93917e-06 5.95021e-06 5.9593e-06 5.96676e-06 5.97283e-06 5.97774e-06 5.98169e-06 5.98484e-06 5.98735e-06 5.98933e-06 5.99088e-06 5.99208e-06 5.99302e-06 5.99374e-06 5.99429e-06 5.99471e-06 5.99502e-06 5.99526e-06 5.99544e-06 5.99557e-06 5.99566e-06 5.99573e-06 5.99578e-06 5.99582e-06 5.99585e-06 5.99587e-06 5.99588e-06 5.99589e-06 5.9959e-06 5.9959e-06 5.9959e-06 5.99591e-06 5.99591e-06 5.99591e-06 5.99591e-06 5.99591e-06 5.99591e-06 5.99591e-06 5.99591e-06 5.9959e-06 5.9959e-06 5.9959e-06 5.99589e-06 5.99588e-06 5.99587e-06 5.99585e-06 5.99582e-06 5.99578e-06 5.99573e-06 5.99566e-06 5.99557e-06 5.99544e-06 5.99526e-06 5.99502e-06 5.99471e-06 5.99429e-06 5.99374e-06 5.99302e-06 5.99208e-06 5.99088e-06 5.98933e-06 5.98735e-06 5.98484e-06 5.98169e-06 5.97774e-06 5.97283e-06 5.96676e-06 5.9593e-06 5.95021e-06 5.93917e-06 5.92588e-06 5.90996e-06 5.89101e-06 5.86861e-06 5.84228e-06 5.81154e-06 5.77587e-06 5.73474e-06 5.68762e-06 5.63397e-06 5.57327e-06 5.50503e-06 5.4288e-06 5.34417e-06 5.25082e-06 5.14849e-06 5.03703e-06 4.91639e-06 4.78664e-06 4.64797e-06 4.50071e-06 4.3453e-06 4.18233e-06 4.01251e-06 3.83667e-06 3.65575e-06 3.47077e-06 3.28284e-06 3.09312e-06 2.90279e-06 2.71307e-06 2.52514e-06 2.34016e-06 2.15924e-06 1.9834e-06 1.81358e-06 1.65061e-06 1.4952e-06 1.34793e-06 1.20927e-06 1.07952e-06 9.58878e-07 8.4742e-07 7.45093e-07 6.51741e-07 5.67115e-07 4.90882e-07 4.22643e-07 3.61945e-07 3.08294e-07 2.61171e-07 2.20043e-07 1.84373e-07 1.53632e-07 1.27305e-07 1.049e-07 8.59531e-08 7.00315e-08 5.67362e-08 4.57036e-08 3.66064e-08 2.91521e-08 2.30823e-08 1.81711e-08 1.42221e-08 1.10669e-08 8.56157e-09 6.58485e-09 5.03495e-09 3.82734e-09 2.89231e-09 2.17287e-09 1.62279e-09 1.20482e-09 8.89221e-10 6.52414e-10 4.75837e-10 3.44993e-10 2.48643e-10 1.78135e-10 1.26861e-10 8.98042e-11 6.31881e-11 4.41872e-11 3.07026e-11 2.11852e-11 1.44986e-11 9.81277e-12 6.52299e-12 4.18756e-12 2.47981e-12 1.15091e-12 0 
0 1.65813e-12 3.57241e-12 6.03188e-12 9.39452e-12 1.41302e-11 2.0874e-11 3.04954e-11 4.41872e-11 6.35827e-11 9.09077e-11 1.29177e-10 1.82449e-10 2.56148e-10 3.57473e-10 4.95915e-10 6.83889e-10 9.37525e-10 1.27762e-09 1.73081e-09 2.33091e-09 3.12059e-09 4.15323e-09 5.49513e-09 7.22801e-09 9.45175e-09 1.22875e-08 1.58811e-08 2.04065e-08 2.60696e-08 3.31119e-08 4.18143e-08 5.25008e-08 6.55412e-08 8.13541e-08 1.00408e-07 1.23225e-07 1.50373e-07 1.82474e-07 2.20191e-07 2.64229e-07 3.15324e-07 3.74232e-07 4.41722e-07 5.18556e-07 6.05477e-07 7.03191e-07 8.12346e-07 9.33511e-07 1.06716e-06 1.21366e-06 1.37322e-06 1.54591e-06 1.73164e-06 1.93013e-06 2.14093e-06 2.36337e-06 2.59663e-06 2.83968e-06 3.09135e-06 3.35028e-06 3.61502e-06 3.88398e-06 4.15551e-06 4.42789e-06 4.69942e-06 4.96838e-06 5.23312e-06 5.49205e-06 5.74372e-06 5.98677e-06 6.22003e-06 6.44247e-06 6.65327e-06 6.85176e-06 7.03749e-06 7.21018e-06 7.36974e-06 7.51624e-06 7.64989e-06 7.77105e-06 7.88021e-06 7.97792e-06 8.06484e-06 8.14168e-06 8.20917e-06 8.26808e-06 8.31917e-06 8.36321e-06 8.40093e-06 8.43303e-06 8.46018e-06 8.48299e-06 8.50205e-06 8.51786e-06 8.5309e-06 8.54159e-06 8.55029e-06 8.55733e-06 8.56299e-06 8.56752e-06 8.57111e-06 8.57395e-06 8.57617e-06 8.57791e-06 8.57925e-06 8.58028e-06 8.58107e-06 8.58167e-06 8.58212e-06 8.58246e-06 8.58272e-06 8.58291e-06 8.58304e-06 8.58315e-06 8.58322e-06 8.58327e-06 8.58331e-06 8.58334e-06 8.58336e-06 8.58337e-06 8.58338e-06 8.58339e-06 8.58339e-06 8.58339e-06 8.5834e-06 8.5834e-06 8.5834e-06 8.5834e-06 8.5834e-06 8.5834e-06 8.58339e-06 8.58339e-06 8.58339e-06 8.58338e-06 8.58337e-06 8.58336e-06 8.58334e-06 8.58331e-06 8.58327e-06 8.58322e-06 8.58315e-06 8.58304e-06 8.58291e-06 8.58272e-06 8.58246e-06 8.58212e-06 8.58167e-06 8.58107e-06 8.58028e-06 8.57925e-06 8.57791e-06 8.57617e-06 8.57395e-06 8.57111e-06 8.56752e-06 8.56299e-06 8.55733e-06 8.55029e-06 8.54159e-06 8.5309e-06 8.51786e-06 8.50205e-06 8.48299e-06 8.46018e-06 8.43303e-06 8.40093e-06 8.36321e-06 8.31917e-06 8.26808e-06 8.20917e-06 8.14168e-06 8.06484e-06 7.97792e-06 7.88021e-06 7.77105e-06 7.64989e-06 7.51624e-06 7.36974e-06 7.21018e-06 7.03749e-06 6.85176e-06 6.65327e-06 6.44247e-06 6.22003e-06 5.98677e-06 5.74372e-06 5.49205e-06 5.23312e-06 4.96838e-06 4.69942e-06 4.42789e-06 4.15551e-06 3.88398e-06 3.61502e-06 3.35028e-06 3.09135e-06 2.83968e-06 2.59663e-06 2.36337e-06 2.14093e-06 1.93013e-06 1.73164e-06 1.54591e-06 1.37322e-06 1.21366e-06 1.06716e-06 9.33511e-07 8.12346e-07 7.03191e-07 6.05477e-07 5.18556e-07 4.41722e-07 3.74232e-07 3.15324e-07 2.64229e-07 2.20191e-07 1.82474e-07 1.50373e-07 1.23225e-07 1.00408e-07 8.13541e-08 6.55412e-08 5.25008e-08 4.18143e-08 3.31119e-08 2.60696e-08 2.04065e-08 1.58811e-08 1.22875e-08 9.45175e-09 7.22801e-09 5.49513e-09 4.15323e-09 3.12059e-09 2.33091e-09 1.73081e-09 1.27762e-09 9.37525e-10 6.83889e-10 4.95915e-10 3.57473e-10 2.56148e-10 1.82449e-10 1.29177e-10 9.09077e-11 6.35827e-11 4.41872e-11 3.04954e-11 2.0874e-11 1.41302e-11 9.39452e-12 6.03188e-12 3.57241e-12 1.65813e-12 0 