<?xml version="1.0"?>
<VTKFile type="ImageData" version="0.1" byte_order="LittleEndian">
  <ImageData WholeExtent="0 255 0 255 0 0" Origin="0 0 0" Spacing="1 1 1">
  <Piece Extent="0 255 0 255 0 0">
    <PointData>
      <DataArray type="Float32" Name="scalar_data" format="ascii" >0 0 0 0 0 0 0 0 0 0 0 0 0 0 0 0 0 0 0 0 0 0 0 0 0 0 0 0 0 0 0 0 0 0 0 0 0 0 0 0 0 0 0 0 0 0 0 0 0 0 0 0 0 0 0 0 0 0 0 0 0 0 0 0 0 0 0 0 0 0 0 0 0 0 0 0 0 0 0 0 0 0 0 0 0 0 0 0 0 0 0 0 0 0 0 0 0 0 0 0 0 0 0 0 0 0 0 0 0 0 0 0 0 0 0 0 0 0 0 0 0 0 0 0 0 0 0 0 0 0 0 0 0 0 0 0 0 0 0 0 0 0 0 0 0 0 0 0 0 0 0 0 0 0 0 0 0 0 0 0 0 0 0 0 0 0 0 0 0 0 0 0 0 0 0 0 0 0 0 0 0 0 0 0 0 0 0 0 0 0 0 0 0 0 0 0 0 0 0 0 0 0 0 0 0 0 0 0 0 0 0 0 0 0 0 0 0 0 0 0 0 0 0 0 0 0 0 0 0 0 0 0 0 0 0 0 0 0 0 0 0 0 0 0 0 0 0 0 0 0 0 0 0 0 0 0 
0 1.52146e-12 3.21254e-12 5.25799e-12 7.87377e-12 1.13251e-11 1.59476e-11 2.21725e-11 3.05574e-11 4.1824e-11 5.69039e-11 7.69952e-11 1.03631e-10 1.3876e-10 1.84849e-10 2.44999e-10 3.2308e-10 4.23899e-10 5.53384e-10 7.18795e-10 9.28975e-10 1.19461e-09 1.52854e-09 1.94608e-09 2.46536e-09 3.10773e-09 3.89811e-09 4.8654e-09 6.04284e-09 7.46843e-09 9.18522e-09 1.12416e-08 1.36915e-08 1.65947e-08 2.00166e-08 2.40281e-08 2.87056e-08 3.41305e-08 4.03885e-08 4.75686e-08 5.57626e-08 6.50634e-08 7.55638e-08 8.73549e-08 1.00524e-07 1.15154e-07 1.31318e-07 1.49082e-07 1.685e-07 1.8961e-07 2.12438e-07 2.3699e-07 2.63254e-07 2.91199e-07 3.20773e-07 3.51902e-07 3.84491e-07 4.18426e-07 4.53572e-07 4.89777e-07 5.26871e-07 5.64672e-07 6.02987e-07 6.41612e-07 6.80343e-07 7.18968e-07 7.57283e-07 7.95084e-07 8.32178e-07 8.68383e-07 9.03529e-07 9.37464e-07 9.70053e-07 1.00118e-06 1.03076e-06 1.0587e-06 1.08497e-06 1.10952e-06 1.13235e-06 1.15346e-06 1.17287e-06 1.19064e-06 1.2068e-06 1.22143e-06 1.2346e-06 1.24639e-06 1.25689e-06 1.26619e-06 1.27439e-06 1.28157e-06 1.28782e-06 1.29325e-06 1.29793e-06 1.30194e-06 1.30536e-06 1.30826e-06 1.31071e-06 1.31277e-06 1.31449e-06 1.31591e-06 1.31709e-06 1.31806e-06 1.31885e-06 1.31949e-06 1.32001e-06 1.32043e-06 1.32076e-06 1.32103e-06 1.32124e-06 1.3214e-06 1.32153e-06 1.32163e-06 1.32171e-06 1.32177e-06 1.32182e-06 1.32185e-06 1.32188e-06 1.3219e-06 1.32191e-06 1.32192e-06 1.32193e-06 1.32194e-06 1.32194e-06 1.32195e-06 1.32195e-06 1.32195e-06 1.32195e-06 1.32195e-06 1.32195e-06 1.32195e-06 1.32195e-06 1.32195e-06 1.32195e-06 1.32194e-06 1.32194e-06 1.32193e-06 1.32192e-06 1.32191e-06 1.3219e-06 1.32188e-06 1.32185e-06 1.32182e-06 1.32177e-06 1.32171e-06 1.32163e-06 1.32153e-06 1.3214e-06 1.32124e-06 1.32103e-06 1.32076e-06 1.32043e-06 1.32001e-06 1.31949e-06 1.31885e-06 1.31806e-06 1.31709e-06 1.31591e-06 1.31449e-06 1.31277e-06 1.31071e-06 1.30826e-06 1.30536e-06 1.30194e-06 1.29793e-06 1.29325e-06 1.28782e-06 1.28157e-06 1.27439e-06 1.26619e-06 1.25689e-06 1.24639e-06 1.2346e-06 1.22143e-06 1.2068e-06 1.19064e-06 1.17287e-06 1.15346e-06 1.13235e-06 1.10952e-06 1.08497e-06 1.0587e-06 1.03076e-06 1.00118e-06 9.70053e-07 9.37464e-07 9.03529e-07 8.68383e-07 8.32178e-07 7.95084e-07 7.57283e-07 7.18968e-07 6.80343e-07 6.41612e-07 6.02987e-07 5.64672e-07 5.26871e-07 4.89777e-07 4.53572e-07 4.18426e-07 3.84491e-07 3.51902e-07 3.20773e-07 2.91199e-07 2.63254e-07 2.3699e-07 2.12438e-07 1.8961e-07 1.685e-07 1.49082e-07 1.31318e-07 1.15154e-07 1.00524e-07 8.73549e-08 7.55638e-08 6.50634e-08 5.57626e-08 4.75686e-08 4.03885e-08 3.41305e-08 2.87056e-08 2.40281e-08 2.00166e-08 1.65947e-08 1.36915e-08 1.12416e-08 9.18522e-09 7.46843e-09 6.04284e-09 4.8654e-09 3.89811e-09 3.10773e-09 2.46536e-09 1.94608e-09 1.52854e-09 1.19461e-09 9.28975e-10 7.18795e-10 5.53384e-10 4.23899e-10 3.2308e-10 2.44999e-10 1.84849e-10 1.3876e-10 1.03631e-10 7.69952e-11 5.69039e-11 4.1824e-11 3.05574e-11 2.21725e-11 1.59476e-11 1.13251e-11 7.87377e-12 5.25799e-12 3.21254e-12 1.52146e-12 0 
0 3.21254e-12 6.78314e-12 1.11017e-11 1.66242e-11 2.39102e-11 3.36682e-11 4.68082e-11 6.4507e-11 8.82872e-11 1.20115e-10 1.62518e-10 2.1873e-10 2.92865e-10 3.90126e-10 5.17052e-10 6.81811e-10 8.94543e-10 1.16775e-09 1.51675e-09 1.96019e-09 2.52061e-09 3.22509e-09 4.10593e-09 5.20138e-09 6.55645e-09 8.22369e-09 1.0264e-08 1.27476e-08 1.57545e-08 1.93756e-08 2.37127e-08 2.88799e-08 3.50028e-08 4.22194e-08 5.06794e-08 6.05438e-08 7.19841e-08 8.51809e-08 1.00322e-07 1.17601e-07 1.37214e-07 1.59355e-07 1.84218e-07 2.11987e-07 2.42834e-07 2.76916e-07 3.14372e-07 3.55313e-07 3.99823e-07 4.47954e-07 4.99719e-07 5.55095e-07 6.14013e-07 6.76365e-07 7.41995e-07 8.10704e-07 8.82249e-07 9.56347e-07 1.03268e-06 1.11088e-06 1.19058e-06 1.27135e-06 1.35279e-06 1.43444e-06 1.51587e-06 1.59665e-06 1.67635e-06 1.75455e-06 1.83088e-06 1.90498e-06 1.97652e-06 2.04523e-06 2.11086e-06 2.17321e-06 2.23213e-06 2.28751e-06 2.33927e-06 2.3874e-06 2.43191e-06 2.47286e-06 2.51031e-06 2.54439e-06 2.57524e-06 2.60301e-06 2.62787e-06 2.65001e-06 2.66963e-06 2.68691e-06 2.70205e-06 2.71524e-06 2.72668e-06 2.73655e-06 2.74501e-06 2.75223e-06 2.75835e-06 2.76352e-06 2.76785e-06 2.77147e-06 2.77448e-06 2.77696e-06 2.779e-06 2.78067e-06 2.78203e-06 2.78312e-06 2.784e-06 2.78471e-06 2.78527e-06 2.78571e-06 2.78606e-06 2.78633e-06 2.78655e-06 2.78671e-06 2.78684e-06 2.78694e-06 2.78701e-06 2.78707e-06 2.78711e-06 2.78714e-06 2.78716e-06 2.78718e-06 2.78719e-06 2.7872e-06 2.78721e-06 2.78721e-06 2.78722e-06 2.78722e-06 2.78722e-06 2.78722e-06 2.78722e-06 2.78722e-06 2.78721e-06 2.78721e-06 2.7872e-06 2.78719e-06 2.78718e-06 2.78716e-06 2.78714e-06 2.78711e-06 2.78707e-06 2.78701e-06 2.78694e-06 2.78684e-06 2.78671e-06 2.78655e-06 2.78633e-06 2.78606e-06 2.78571e-06 2.78527e-06 2.78471e-06 2.784e-06 2.78312e-06 2.78203e-06 2.78067e-06 2.779e-06 2.77696e-06 2.77448e-06 2.77147e-06 2.76785e-06 2.76352e-06 2.75835e-06 2.75223e-06 2.74501e-06 2.73655e-06 2.72668e-06 2.71524e-06 2.70205e-06 2.68691e-06 2.66963e-06 2.65001e-06 2.62787e-06 2.60301e-06 2.57524e-06 2.54439e-06 2.51031e-06 2.47286e-06 2.43191e-06 2.3874e-06 2.33927e-06 2.28751e-06 2.23213e-06 2.17321e-06 2.11086e-06 2.04523e-06 1.97652e-06 1.90498e-06 1.83088e-06 1.75455e-06 1.67635e-06 1.59665e-06 1.51587e-06 1.43444e-06 1.35279e-06 1.27135e-06 1.19058e-06 1.11088e-06 1.03268e-06 9.56347e-07 8.82249e-07 8.10704e-07 7.41995e-07 6.76365e-07 6.14013e-07 5.55095e-07 4.99719e-07 4.47954e-07 3.99823e-07 3.55313e-07 3.14372e-07 2.76916e-07 2.42834e-07 2.11987e-07 1.84218e-07 1.59355e-07 1.37214e-07 1.17601e-07 1.00322e-07 8.51809e-08 7.19841e-08 6.05438e-08 5.06794e-08 4.22194e-08 3.50028e-08 2.88799e-08 2.37127e-08 1.93756e-08 1.57545e-08 1.27476e-08 1.0264e-08 8.22369e-09 6.55645e-09 5.20138e-09 4.10593e-09 3.22509e-09 2.52061e-09 1.96019e-09 1.51675e-09 1.16775e-09 8.94543e-10 6.81811e-10 5.17052e-10 3.90126e-10 2.92865e-10 2.1873e-10 1.62518e-10 1.20115e-10 8.82872e-11 6.4507e-11 4.68082e-11 3.36682e-11 2.39102e-11 1.66242e-11 1.11017e-11 6.78314e-12 3.21254e-12 0 
0 5.25799e-12 1.11017e-11 1.81692e-11 2.72059e-11 3.91276e-11 5.50926e-11 7.65893e-11 1.05542e-10 1.4444e-10 1.96499e-10 2.6585e-10 3.5778e-10 4.79015e-10 6.38059e-10 8.456e-10 1.11499e-09 1.46279e-09 1.90944e-09 2.47998e-09 3.20486e-09 4.12092e-09 5.27241e-09 6.71208e-09 8.50244e-09 1.0717e-08 1.34416e-08 1.67758e-08 2.08341e-08 2.57474e-08 3.16639e-08 3.87502e-08 4.71923e-08 5.71955e-08 6.89851e-08 8.28056e-08 9.89198e-08 1.17608e-07 1.39164e-07 1.63896e-07 1.92119e-07 2.24152e-07 2.60316e-07 3.00923e-07 3.46274e-07 3.96652e-07 4.52314e-07 5.13482e-07 5.80341e-07 6.53028e-07 7.31625e-07 8.16157e-07 9.06582e-07 1.00279e-06 1.10461e-06 1.21177e-06 1.32397e-06 1.44079e-06 1.56178e-06 1.68641e-06 1.81411e-06 1.94424e-06 2.07613e-06 2.2091e-06 2.34242e-06 2.47539e-06 2.60728e-06 2.73741e-06 2.8651e-06 2.98974e-06 3.11073e-06 3.22755e-06 3.33975e-06 3.44691e-06 3.54873e-06 3.64494e-06 3.73536e-06 3.81989e-06 3.89849e-06 3.97118e-06 4.03804e-06 4.0992e-06 4.15487e-06 4.20524e-06 4.2506e-06 4.2912e-06 4.32737e-06 4.3594e-06 4.38762e-06 4.41235e-06 4.43391e-06 4.4526e-06 4.46871e-06 4.48253e-06 4.49432e-06 4.50433e-06 4.51277e-06 4.51985e-06 4.52577e-06 4.53069e-06 4.53474e-06 4.53808e-06 4.5408e-06 4.54302e-06 4.54481e-06 4.54625e-06 4.5474e-06 4.54831e-06 4.54904e-06 4.54961e-06 4.55006e-06 4.5504e-06 4.55067e-06 4.55088e-06 4.55104e-06 4.55116e-06 4.55125e-06 4.55132e-06 4.55137e-06 4.55141e-06 4.55144e-06 4.55146e-06 4.55148e-06 4.55149e-06 4.5515e-06 4.5515e-06 4.5515e-06 4.55151e-06 4.55151e-06 4.5515e-06 4.5515e-06 4.5515e-06 4.55149e-06 4.55148e-06 4.55146e-06 4.55144e-06 4.55141e-06 4.55137e-06 4.55132e-06 4.55125e-06 4.55116e-06 4.55104e-06 4.55088e-06 4.55067e-06 4.5504e-06 4.55006e-06 4.54961e-06 4.54904e-06 4.54831e-06 4.5474e-06 4.54625e-06 4.54481e-06 4.54302e-06 4.5408e-06 4.53808e-06 4.53474e-06 4.53069e-06 4.52577e-06 4.51985e-06 4.51277e-06 4.50433e-06 4.49432e-06 4.48253e-06 4.46871e-06 4.4526e-06 4.43391e-06 4.41235e-06 4.38762e-06 4.3594e-06 4.32737e-06 4.2912e-06 4.2506e-06 4.20524e-06 4.15487e-06 4.0992e-06 4.03804e-06 3.97118e-06 3.89849e-06 3.81989e-06 3.73536e-06 3.64494e-06 3.54873e-06 3.44691e-06 3.33975e-06 3.22755e-06 3.11073e-06 2.98974e-06 2.8651e-06 2.73741e-06 2.60728e-06 2.47539e-06 2.34242e-06 2.2091e-06 2.07613e-06 1.94424e-06 1.81411e-06 1.68641e-06 1.56178e-06 1.44079e-06 1.32397e-06 1.21177e-06 1.10461e-06 1.00279e-06 9.06582e-07 8.16157e-07 7.31625e-07 6.53028e-07 5.80341e-07 5.13482e-07 4.52314e-07 3.96652e-07 3.46274e-07 3.00923e-07 2.60316e-07 2.24152e-07 1.92119e-07 1.63896e-07 1.39164e-07 1.17608e-07 9.89198e-08 8.28056e-08 6.89851e-08 5.71955e-08 4.71923e-08 3.87502e-08 3.16639e-08 2.57474e-08 2.08341e-08 1.67758e-08 1.34416e-08 1.0717e-08 8.50244e-09 6.71208e-09 5.27241e-09 4.12092e-09 3.20486e-09 2.47998e-09 1.90944e-09 1.46279e-09 1.11499e-09 8.456e-10 6.38059e-10 4.79015e-10 3.5778e-10 2.6585e-10 1.96499e-10 1.4444e-10 1.05542e-10 7.65893e-11 5.50926e-11 3.91276e-11 2.72059e-11 1.81692e-11 1.11017e-11 5.25799e-12 0 
0 7.87377e-12 1.66242e-11 2.72059e-11 4.07347e-11 5.85806e-11 8.24766e-11 1.14649e-10 1.57976e-10 2.16182e-10 2.94074e-10 3.97831e-10 5.35358e-10 7.16709e-10 9.546e-10 1.26501e-09 1.66788e-09 2.188e-09 2.85589e-09 3.70896e-09 4.79274e-09 6.16227e-09 7.88365e-09 1.00357e-08 1.27118e-08 1.60218e-08 2.00939e-08 2.50768e-08 3.11415e-08 3.84835e-08 4.73241e-08 5.79122e-08 7.05253e-08 8.54703e-08 1.03083e-07 1.23729e-07 1.47801e-07 1.75716e-07 2.07915e-07 2.44855e-07 2.87008e-07 3.34851e-07 3.8886e-07 4.49504e-07 5.17231e-07 5.92462e-07 6.75581e-07 7.66922e-07 8.66757e-07 9.75291e-07 1.09265e-06 1.21886e-06 1.35388e-06 1.49753e-06 1.64954e-06 1.80954e-06 1.97705e-06 2.15146e-06 2.3321e-06 2.51817e-06 2.70881e-06 2.90309e-06 3.1e-06 3.2985e-06 3.49755e-06 3.69606e-06 3.89297e-06 4.08724e-06 4.27788e-06 4.46396e-06 4.64459e-06 4.81901e-06 4.98651e-06 5.14651e-06 5.29853e-06 5.44217e-06 5.57719e-06 5.7034e-06 5.82076e-06 5.9293e-06 6.02913e-06 6.12047e-06 6.20359e-06 6.27882e-06 6.34655e-06 6.40719e-06 6.4612e-06 6.50904e-06 6.5512e-06 6.58814e-06 6.62034e-06 6.64825e-06 6.67232e-06 6.69297e-06 6.71058e-06 6.72553e-06 6.73814e-06 6.74873e-06 6.75757e-06 6.76491e-06 6.77098e-06 6.77596e-06 6.78003e-06 6.78334e-06 6.78602e-06 6.78817e-06 6.78989e-06 6.79126e-06 6.79234e-06 6.7932e-06 6.79387e-06 6.79439e-06 6.79479e-06 6.7951e-06 6.79534e-06 6.79552e-06 6.79566e-06 6.79576e-06 6.79584e-06 6.79589e-06 6.79594e-06 6.79597e-06 6.79599e-06 6.79601e-06 6.79602e-06 6.79603e-06 6.79603e-06 6.79603e-06 6.79603e-06 6.79603e-06 6.79603e-06 6.79602e-06 6.79601e-06 6.79599e-06 6.79597e-06 6.79594e-06 6.79589e-06 6.79584e-06 6.79576e-06 6.79566e-06 6.79552e-06 6.79534e-06 6.7951e-06 6.79479e-06 6.79439e-06 6.79387e-06 6.7932e-06 6.79234e-06 6.79126e-06 6.78989e-06 6.78817e-06 6.78602e-06 6.78334e-06 6.78003e-06 6.77596e-06 6.77098e-06 6.76491e-06 6.75757e-06 6.74873e-06 6.73814e-06 6.72553e-06 6.71058e-06 6.69297e-06 6.67232e-06 6.64825e-06 6.62034e-06 6.58814e-06 6.5512e-06 6.50904e-06 6.4612e-06 6.40719e-06 6.34655e-06 6.27882e-06 6.20359e-06 6.12047e-06 6.02913e-06 5.9293e-06 5.82076e-06 5.7034e-06 5.57719e-06 5.44217e-06 5.29853e-06 5.14651e-06 4.98651e-06 4.81901e-06 4.64459e-06 4.46396e-06 4.27788e-06 4.08724e-06 3.89297e-06 3.69606e-06 3.49755e-06 3.2985e-06 3.1e-06 2.90309e-06 2.70881e-06 2.51817e-06 2.3321e-06 2.15146e-06 1.97705e-06 1.80954e-06 1.64954e-06 1.49753e-06 1.35388e-06 1.21886e-06 1.09265e-06 9.75291e-07 8.66757e-07 7.66922e-07 6.75581e-07 5.92462e-07 5.17231e-07 4.49504e-07 3.8886e-07 3.34851e-07 2.87008e-07 2.44855e-07 2.07915e-07 1.75716e-07 1.47801e-07 1.23729e-07 1.03083e-07 8.54703e-08 7.05253e-08 5.79122e-08 4.73241e-08 3.84835e-08 3.11415e-08 2.50768e-08 2.00939e-08 1.60218e-08 1.27118e-08 1.00357e-08 7.88365e-09 6.16227e-09 4.79274e-09 3.70896e-09 2.85589e-09 2.188e-09 1.66788e-09 1.26501e-09 9.546e-10 7.16709e-10 5.35358e-10 3.97831e-10 2.94074e-10 2.16182e-10 1.57976e-10 1.14649e-10 8.24766e-11 5.85806e-11 4.07347e-11 2.72059e-11 1.66242e-11 7.87377e-12 0 
0 1.13251e-11 2.39102e-11 3.91276e-11 5.85806e-11 8.42379e-11 1.1859e-10 1.64834e-10 2.27105e-10 3.10752e-10 4.22678e-10 5.71756e-10 7.69338e-10 1.02986e-09 1.37157e-09 1.8174e-09 2.39601e-09 3.14292e-09 4.10196e-09 5.32682e-09 6.88281e-09 8.84891e-09 1.13199e-08 1.4409e-08 1.825e-08 2.30004e-08 2.88443e-08 3.59947e-08 4.4697e-08 5.52314e-08 6.79153e-08 8.31055e-08 1.012e-07 1.22638e-07 1.47903e-07 1.77516e-07 2.12041e-07 2.52077e-07 2.98254e-07 3.51229e-07 4.11677e-07 4.80281e-07 5.57725e-07 6.44678e-07 7.41784e-07 8.49646e-07 9.68813e-07 1.09976e-06 1.24289e-06 1.39848e-06 1.56671e-06 1.74764e-06 1.94118e-06 2.14709e-06 2.36499e-06 2.59434e-06 2.83443e-06 3.08443e-06 3.34334e-06 3.61004e-06 3.88329e-06 4.16174e-06 4.44397e-06 4.72849e-06 5.01378e-06 5.2983e-06 5.58053e-06 5.85898e-06 6.13223e-06 6.39893e-06 6.65785e-06 6.90784e-06 7.14794e-06 7.37728e-06 7.59518e-06 7.80109e-06 7.99463e-06 8.17556e-06 8.3438e-06 8.49939e-06 8.64251e-06 8.77346e-06 8.89263e-06 9.00049e-06 9.0976e-06 9.18455e-06 9.26199e-06 9.3306e-06 9.39105e-06 9.44402e-06 9.4902e-06 9.53023e-06 9.56476e-06 9.59437e-06 9.61964e-06 9.64108e-06 9.65917e-06 9.67436e-06 9.68704e-06 9.69758e-06 9.70628e-06 9.71343e-06 9.71928e-06 9.72403e-06 9.72787e-06 9.73096e-06 9.73343e-06 9.73539e-06 9.73695e-06 9.73817e-06 9.73913e-06 9.73988e-06 9.74046e-06 9.74091e-06 9.74125e-06 9.74151e-06 9.7417e-06 9.74185e-06 9.74197e-06 9.74205e-06 9.74211e-06 9.74215e-06 9.74219e-06 9.74221e-06 9.74223e-06 9.74224e-06 9.74225e-06 9.74225e-06 9.74225e-06 9.74225e-06 9.74224e-06 9.74223e-06 9.74221e-06 9.74219e-06 9.74215e-06 9.74211e-06 9.74205e-06 9.74197e-06 9.74185e-06 9.7417e-06 9.74151e-06 9.74125e-06 9.74091e-06 9.74046e-06 9.73988e-06 9.73913e-06 9.73817e-06 9.73695e-06 9.73539e-06 9.73343e-06 9.73096e-06 9.72787e-06 9.72403e-06 9.71928e-06 9.71343e-06 9.70628e-06 9.69758e-06 9.68704e-06 9.67436e-06 9.65917e-06 9.64108e-06 9.61964e-06 9.59437e-06 9.56476e-06 9.53023e-06 9.4902e-06 9.44402e-06 9.39105e-06 9.3306e-06 9.26199e-06 9.18455e-06 9.0976e-06 9.00049e-06 8.89263e-06 8.77346e-06 8.64251e-06 8.49939e-06 8.3438e-06 8.17556e-06 7.99463e-06 7.80109e-06 7.59518e-06 7.37728e-06 7.14794e-06 6.90784e-06 6.65785e-06 6.39893e-06 6.13223e-06 5.85898e-06 5.58053e-06 5.2983e-06 5.01378e-06 4.72849e-06 4.44397e-06 4.16174e-06 3.88329e-06 3.61004e-06 3.34334e-06 3.08443e-06 2.83443e-06 2.59434e-06 2.36499e-06 2.14709e-06 1.94118e-06 1.74764e-06 1.56671e-06 1.39848e-06 1.24289e-06 1.09976e-06 9.68813e-07 8.49646e-07 7.41784e-07 6.44678e-07 5.57725e-07 4.80281e-07 4.11677e-07 3.51229e-07 2.98254e-07 2.52077e-07 2.12041e-07 1.77516e-07 1.47903e-07 1.22638e-07 1.012e-07 8.31055e-08 6.79153e-08 5.52314e-08 4.4697e-08 3.59947e-08 2.88443e-08 2.30004e-08 1.825e-08 1.4409e-08 1.13199e-08 8.84891e-09 6.88281e-09 5.32682e-09 4.10196e-09 3.14292e-09 2.39601e-09 1.8174e-09 1.37157e-09 1.02986e-09 7.69338e-10 5.71756e-10 4.22678e-10 3.10752e-10 2.27105e-10 1.64834e-10 1.1859e-10 8.42379e-11 5.85806e-11 3.91276e-11 2.39102e-11 1.13251e-11 0 
0 1.59476e-11 3.36682e-11 5.50926e-11 8.24766e-11 1.1859e-10 1.66933e-10 2.32006e-10 3.19621e-10 4.37299e-10 5.94744e-10 8.0443e-10 1.08231e-09 1.44867e-09 1.92916e-09 2.556e-09 3.36944e-09 4.41941e-09 5.76745e-09 7.48899e-09 9.67575e-09 1.24386e-08 1.59108e-08 2.0251e-08 2.56474e-08 3.23209e-08 4.05299e-08 5.05735e-08 6.27962e-08 7.7591e-08 9.54035e-08 1.16734e-07 1.42142e-07 1.72243e-07 2.07714e-07 2.49289e-07 2.97757e-07 3.53959e-07 4.18778e-07 4.93135e-07 5.77978e-07 6.74264e-07 7.82952e-07 9.04981e-07 1.04125e-06 1.19262e-06 1.35983e-06 1.54358e-06 1.74441e-06 1.96272e-06 2.19876e-06 2.45261e-06 2.72415e-06 3.01303e-06 3.31873e-06 3.64048e-06 3.97731e-06 4.32802e-06 4.69124e-06 5.06538e-06 5.4487e-06 5.83932e-06 6.23523e-06 6.63436e-06 7.03456e-06 7.43369e-06 7.82961e-06 8.22022e-06 8.60354e-06 8.97768e-06 9.3409e-06 9.69161e-06 1.00284e-05 1.03502e-05 1.06559e-05 1.09448e-05 1.12163e-05 1.14702e-05 1.17062e-05 1.19245e-05 1.21253e-05 1.23091e-05 1.24763e-05 1.26277e-05 1.27639e-05 1.2886e-05 1.29947e-05 1.30909e-05 1.31758e-05 1.32501e-05 1.3315e-05 1.33712e-05 1.34196e-05 1.34612e-05 1.34967e-05 1.35268e-05 1.35522e-05 1.35735e-05 1.35913e-05 1.36061e-05 1.36183e-05 1.36284e-05 1.36366e-05 1.36433e-05 1.36487e-05 1.3653e-05 1.36565e-05 1.36592e-05 1.36614e-05 1.36632e-05 1.36645e-05 1.36656e-05 1.36664e-05 1.3667e-05 1.36675e-05 1.36678e-05 1.36681e-05 1.36683e-05 1.36685e-05 1.36686e-05 1.36687e-05 1.36688e-05 1.36688e-05 1.36688e-05 1.36689e-05 1.36689e-05 1.36689e-05 1.36689e-05 1.36689e-05 1.36689e-05 1.36689e-05 1.36689e-05 1.36688e-05 1.36688e-05 1.36688e-05 1.36687e-05 1.36686e-05 1.36685e-05 1.36683e-05 1.36681e-05 1.36678e-05 1.36675e-05 1.3667e-05 1.36664e-05 1.36656e-05 1.36645e-05 1.36632e-05 1.36614e-05 1.36592e-05 1.36565e-05 1.3653e-05 1.36487e-05 1.36433e-05 1.36366e-05 1.36284e-05 1.36183e-05 1.36061e-05 1.35913e-05 1.35735e-05 1.35522e-05 1.35268e-05 1.34967e-05 1.34612e-05 1.34196e-05 1.33712e-05 1.3315e-05 1.32501e-05 1.31758e-05 1.30909e-05 1.29947e-05 1.2886e-05 1.27639e-05 1.26277e-05 1.24763e-05 1.23091e-05 1.21253e-05 1.19245e-05 1.17062e-05 1.14702e-05 1.12163e-05 1.09448e-05 1.06559e-05 1.03502e-05 1.00284e-05 9.69161e-06 9.3409e-06 8.97768e-06 8.60354e-06 8.22022e-06 7.82961e-06 7.43369e-06 7.03456e-06 6.63436e-06 6.23523e-06 5.83932e-06 5.4487e-06 5.06538e-06 4.69124e-06 4.32802e-06 3.97731e-06 3.64048e-06 3.31873e-06 3.01303e-06 2.72415e-06 2.45261e-06 2.19876e-06 1.96272e-06 1.74441e-06 1.54358e-06 1.35983e-06 1.19262e-06 1.04125e-06 9.04981e-07 7.82952e-07 6.74264e-07 5.77978e-07 4.93135e-07 4.18778e-07 3.53959e-07 2.97757e-07 2.49289e-07 2.07714e-07 1.72243e-07 1.42142e-07 1.16734e-07 9.54035e-08 7.7591e-08 6.27962e-08 5.05735e-08 4.05299e-08 3.23209e-08 2.56474e-08 2.0251e-08 1.59108e-08 1.24386e-08 9.67575e-09 7.48899e-09 5.76745e-09 4.41941e-09 3.36944e-09 2.556e-09 1.92916e-09 1.44867e-09 1.08231e-09 8.0443e-10 5.94744e-10 4.37299e-10 3.19621e-10 2.32006e-10 1.66933e-10 1.1859e-10 8.24766e-11 5.50926e-11 3.36682e-11 1.59476e-11 0 
0 2.21725e-11 4.68082e-11 7.65893e-11 1.14649e-10 1.64834e-10 2.32006e-10 3.22412e-10 4.44121e-10 6.07571e-10 8.26234e-10 1.11742e-09 1.50326e-09 2.01191e-09 2.67894e-09 3.54906e-09 4.67809e-09 6.13528e-09 8.00598e-09 1.03948e-08 1.34288e-08 1.72619e-08 2.20786e-08 2.8099e-08 3.55837e-08 4.48392e-08 5.62233e-08 7.01507e-08 8.70985e-08 1.07611e-07 1.32307e-07 1.61878e-07 1.97098e-07 2.38822e-07 2.87987e-07 3.45608e-07 4.12779e-07 4.90664e-07 5.80486e-07 6.83521e-07 8.01078e-07 9.34487e-07 1.08507e-06 1.25413e-06 1.44292e-06 1.6526e-06 1.88424e-06 2.13877e-06 2.41695e-06 2.71933e-06 3.04627e-06 3.39787e-06 3.77394e-06 4.17404e-06 4.59742e-06 5.04302e-06 5.50949e-06 5.99519e-06 6.49819e-06 7.01632e-06 7.54716e-06 8.08809e-06 8.63636e-06 9.18908e-06 9.74329e-06 1.0296e-05 1.08443e-05 1.13852e-05 1.1916e-05 1.24342e-05 1.29372e-05 1.34229e-05 1.38893e-05 1.43349e-05 1.47583e-05 1.51584e-05 1.55345e-05 1.58861e-05 1.6213e-05 1.65154e-05 1.67936e-05 1.70481e-05 1.72798e-05 1.74895e-05 1.76782e-05 1.78473e-05 1.79979e-05 1.81313e-05 1.82488e-05 1.83519e-05 1.84417e-05 1.85196e-05 1.85868e-05 1.86444e-05 1.86935e-05 1.87353e-05 1.87705e-05 1.88001e-05 1.88248e-05 1.88453e-05 1.88622e-05 1.88761e-05 1.88875e-05 1.88968e-05 1.89043e-05 1.89103e-05 1.89151e-05 1.89189e-05 1.8922e-05 1.89244e-05 1.89262e-05 1.89277e-05 1.89288e-05 1.89297e-05 1.89304e-05 1.89309e-05 1.89313e-05 1.89315e-05 1.89318e-05 1.89319e-05 1.8932e-05 1.89321e-05 1.89322e-05 1.89322e-05 1.89323e-05 1.89323e-05 1.89323e-05 1.89323e-05 1.89323e-05 1.89323e-05 1.89323e-05 1.89323e-05 1.89322e-05 1.89322e-05 1.89321e-05 1.8932e-05 1.89319e-05 1.89318e-05 1.89315e-05 1.89313e-05 1.89309e-05 1.89304e-05 1.89297e-05 1.89288e-05 1.89277e-05 1.89262e-05 1.89244e-05 1.8922e-05 1.89189e-05 1.89151e-05 1.89103e-05 1.89043e-05 1.88968e-05 1.88875e-05 1.88761e-05 1.88622e-05 1.88453e-05 1.88248e-05 1.88001e-05 1.87705e-05 1.87353e-05 1.86935e-05 1.86444e-05 1.85868e-05 1.85196e-05 1.84417e-05 1.83519e-05 1.82488e-05 1.81313e-05 1.79979e-05 1.78473e-05 1.76782e-05 1.74895e-05 1.72798e-05 1.70481e-05 1.67936e-05 1.65154e-05 1.6213e-05 1.58861e-05 1.55345e-05 1.51584e-05 1.47583e-05 1.43349e-05 1.38893e-05 1.34229e-05 1.29372e-05 1.24342e-05 1.1916e-05 1.13852e-05 1.08443e-05 1.0296e-05 9.74329e-06 9.18908e-06 8.63636e-06 8.08809e-06 7.54716e-06 7.01632e-06 6.49819e-06 5.99519e-06 5.50949e-06 5.04302e-06 4.59742e-06 4.17404e-06 3.77394e-06 3.39787e-06 3.04627e-06 2.71933e-06 2.41695e-06 2.13877e-06 1.88424e-06 1.6526e-06 1.44292e-06 1.25413e-06 1.08507e-06 9.34487e-07 8.01078e-07 6.83521e-07 5.80486e-07 4.90664e-07 4.12779e-07 3.45608e-07 2.87987e-07 2.38822e-07 1.97098e-07 1.61878e-07 1.32307e-07 1.07611e-07 8.70985e-08 7.01507e-08 5.62233e-08 4.48392e-08 3.55837e-08 2.8099e-08 2.20786e-08 1.72619e-08 1.34288e-08 1.03948e-08 8.00598e-09 6.13528e-09 4.67809e-09 3.54906e-09 2.67894e-09 2.01191e-09 1.50326e-09 1.11742e-09 8.26234e-10 6.07571e-10 4.44121e-10 3.22412e-10 2.32006e-10 1.64834e-10 1.14649e-10 7.65893e-11 4.68082e-11 2.21725e-11 0 
0 3.05574e-11 6.4507e-11 1.05542e-10 1.57976e-10 2.27105e-10 3.19621e-10 4.44121e-10 6.11708e-10 8.36746e-10 1.13776e-09 1.53857e-09 2.06962e-09 2.76962e-09 3.68749e-09 4.88471e-09 6.43801e-09 8.44258e-09 1.10158e-08 1.43013e-08 1.84739e-08 2.3745e-08 3.03681e-08 3.86456e-08 4.89357e-08 6.16592e-08 7.73076e-08 9.64506e-08 1.19743e-07 1.47934e-07 1.8187e-07 2.22503e-07 2.70896e-07 3.28222e-07 3.95766e-07 4.74923e-07 5.67195e-07 6.74176e-07 7.9755e-07 9.39063e-07 1.10052e-06 1.28373e-06 1.49052e-06 1.72267e-06 1.98191e-06 2.26982e-06 2.58787e-06 2.93733e-06 3.31925e-06 3.7344e-06 4.18325e-06 4.66592e-06 5.18219e-06 5.73144e-06 6.31262e-06 6.92429e-06 7.56461e-06 8.23131e-06 8.92175e-06 9.63294e-06 1.03616e-05 1.11041e-05 1.18566e-05 1.26153e-05 1.3376e-05 1.41346e-05 1.48872e-05 1.56297e-05 1.63583e-05 1.70695e-05 1.77599e-05 1.84266e-05 1.90669e-05 1.96786e-05 2.02598e-05 2.0809e-05 2.13253e-05 2.1808e-05 2.22568e-05 2.2672e-05 2.30539e-05 2.34034e-05 2.37214e-05 2.40093e-05 2.42686e-05 2.45007e-05 2.47075e-05 2.48907e-05 2.50522e-05 2.51937e-05 2.53171e-05 2.54241e-05 2.55163e-05 2.55955e-05 2.5663e-05 2.57204e-05 2.57687e-05 2.58094e-05 2.58433e-05 2.58715e-05 2.58948e-05 2.59139e-05 2.59296e-05 2.59423e-05 2.59526e-05 2.59609e-05 2.59675e-05 2.59728e-05 2.59769e-05 2.59802e-05 2.59828e-05 2.59848e-05 2.59864e-05 2.59876e-05 2.59885e-05 2.59892e-05 2.59897e-05 2.59901e-05 2.59904e-05 2.59906e-05 2.59908e-05 2.59909e-05 2.5991e-05 2.59911e-05 2.59911e-05 2.59911e-05 2.59912e-05 2.59912e-05 2.59912e-05 2.59912e-05 2.59911e-05 2.59911e-05 2.59911e-05 2.5991e-05 2.59909e-05 2.59908e-05 2.59906e-05 2.59904e-05 2.59901e-05 2.59897e-05 2.59892e-05 2.59885e-05 2.59876e-05 2.59864e-05 2.59848e-05 2.59828e-05 2.59802e-05 2.59769e-05 2.59728e-05 2.59675e-05 2.59609e-05 2.59526e-05 2.59423e-05 2.59296e-05 2.59139e-05 2.58948e-05 2.58715e-05 2.58433e-05 2.58094e-05 2.57687e-05 2.57204e-05 2.5663e-05 2.55955e-05 2.55163e-05 2.54241e-05 2.53171e-05 2.51937e-05 2.50522e-05 2.48907e-05 2.47075e-05 2.45007e-05 2.42686e-05 2.40093e-05 2.37214e-05 2.34034e-05 2.30539e-05 2.2672e-05 2.22568e-05 2.1808e-05 2.13253e-05 2.0809e-05 2.02598e-05 1.96786e-05 1.90669e-05 1.84266e-05 1.77599e-05 1.70695e-05 1.63583e-05 1.56297e-05 1.48872e-05 1.41346e-05 1.3376e-05 1.26153e-05 1.18566e-05 1.11041e-05 1.03616e-05 9.63294e-06 8.92175e-06 8.23131e-06 7.56461e-06 6.92429e-06 6.31262e-06 5.73144e-06 5.18219e-06 4.66592e-06 4.18325e-06 3.7344e-06 3.31925e-06 2.93733e-06 2.58787e-06 2.26982e-06 1.98191e-06 1.72267e-06 1.49052e-06 1.28373e-06 1.10052e-06 9.39063e-07 7.9755e-07 6.74176e-07 5.67195e-07 4.74923e-07 3.95766e-07 3.28222e-07 2.70896e-07 2.22503e-07 1.8187e-07 1.47934e-07 1.19743e-07 9.64506e-08 7.73076e-08 6.16592e-08 4.89357e-08 3.86456e-08 3.03681e-08 2.3745e-08 1.84739e-08 1.43013e-08 1.10158e-08 8.44258e-09 6.43801e-09 4.88471e-09 3.68749e-09 2.76962e-09 2.06962e-09 1.53857e-09 1.13776e-09 8.36746e-10 6.11708e-10 4.44121e-10 3.19621e-10 2.27105e-10 1.57976e-10 1.05542e-10 6.4507e-11 3.05574e-11 0 
0 4.1824e-11 8.82872e-11 1.4444e-10 2.16182e-10 3.10752e-10 4.37299e-10 6.07571e-10 8.36746e-10 1.14445e-09 1.55599e-09 2.10391e-09 2.82979e-09 3.7865e-09 5.04086e-09 6.6768e-09 8.79911e-09 1.15377e-08 1.50529e-08 1.95407e-08 2.52397e-08 3.24384e-08 4.14827e-08 5.27854e-08 6.68349e-08 8.42056e-08 1.05568e-07 1.31699e-07 1.63491e-07 2.01967e-07 2.4828e-07 3.03731e-07 3.69765e-07 4.47984e-07 5.4014e-07 6.48135e-07 7.74013e-07 9.19952e-07 1.08824e-06 1.28127e-06 1.50148e-06 1.75136e-06 2.03338e-06 2.34998e-06 2.70349e-06 3.0961e-06 3.52979e-06 4.0063e-06 4.52704e-06 5.09308e-06 5.70504e-06 6.36311e-06 7.06696e-06 7.81575e-06 8.60806e-06 9.44193e-06 1.03148e-05 1.12237e-05 1.21649e-05 1.31344e-05 1.41276e-05 1.51397e-05 1.61656e-05 1.71997e-05 1.82367e-05 1.92708e-05 2.02967e-05 2.13088e-05 2.2302e-05 2.32715e-05 2.42127e-05 2.51216e-05 2.59945e-05 2.68283e-05 2.76206e-05 2.83694e-05 2.90733e-05 2.97313e-05 3.03433e-05 3.09093e-05 3.14301e-05 3.19066e-05 3.23403e-05 3.27329e-05 3.30864e-05 3.3403e-05 3.3685e-05 3.39349e-05 3.41551e-05 3.43481e-05 3.45164e-05 3.46624e-05 3.47883e-05 3.48963e-05 3.49884e-05 3.50666e-05 3.51327e-05 3.51881e-05 3.52344e-05 3.52729e-05 3.53047e-05 3.53308e-05 3.53522e-05 3.53696e-05 3.53836e-05 3.53949e-05 3.5404e-05 3.54112e-05 3.54169e-05 3.54213e-05 3.54249e-05 3.54276e-05 3.54297e-05 3.54314e-05 3.54326e-05 3.54336e-05 3.54343e-05 3.54348e-05 3.54352e-05 3.54356e-05 3.54358e-05 3.54359e-05 3.54361e-05 3.54362e-05 3.54362e-05 3.54363e-05 3.54363e-05 3.54363e-05 3.54363e-05 3.54363e-05 3.54363e-05 3.54362e-05 3.54362e-05 3.54361e-05 3.54359e-05 3.54358e-05 3.54356e-05 3.54352e-05 3.54348e-05 3.54343e-05 3.54336e-05 3.54326e-05 3.54314e-05 3.54297e-05 3.54276e-05 3.54249e-05 3.54213e-05 3.54169e-05 3.54112e-05 3.5404e-05 3.53949e-05 3.53836e-05 3.53696e-05 3.53522e-05 3.53308e-05 3.53047e-05 3.52729e-05 3.52344e-05 3.51881e-05 3.51327e-05 3.50666e-05 3.49884e-05 3.48963e-05 3.47883e-05 3.46624e-05 3.45164e-05 3.43481e-05 3.41551e-05 3.39349e-05 3.3685e-05 3.3403e-05 3.30864e-05 3.27329e-05 3.23403e-05 3.19066e-05 3.14301e-05 3.09093e-05 3.03433e-05 2.97313e-05 2.90733e-05 2.83694e-05 2.76206e-05 2.68283e-05 2.59945e-05 2.51216e-05 2.42127e-05 2.32715e-05 2.2302e-05 2.13088e-05 2.02967e-05 1.92708e-05 1.82367e-05 1.71997e-05 1.61656e-05 1.51397e-05 1.41276e-05 1.31344e-05 1.21649e-05 1.12237e-05 1.03148e-05 9.44193e-06 8.60806e-06 7.81575e-06 7.06696e-06 6.36311e-06 5.70504e-06 5.09308e-06 4.52704e-06 4.0063e-06 3.52979e-06 3.0961e-06 2.70349e-06 2.34998e-06 2.03338e-06 1.75136e-06 1.50148e-06 1.28127e-06 1.08824e-06 9.19952e-07 7.74013e-07 6.48135e-07 5.4014e-07 4.47984e-07 3.69765e-07 3.03731e-07 2.4828e-07 2.01967e-07 1.63491e-07 1.31699e-07 1.05568e-07 8.42056e-08 6.68349e-08 5.27854e-08 4.14827e-08 3.24384e-08 2.52397e-08 1.95407e-08 1.50529e-08 1.15377e-08 8.79911e-09 6.6768e-09 5.04086e-09 3.7865e-09 2.82979e-09 2.10391e-09 1.55599e-09 1.14445e-09 8.36746e-10 6.07571e-10 4.37299e-10 3.10752e-10 2.16182e-10 1.4444e-10 8.82872e-11 4.1824e-11 0 