<?xml version="1.0"?>
<VTKFile type="ImageData" version="0.1" byte_order="LittleEndian">
  <ImageData WholeExtent="0 255 0 255 0 0" Origin="0 0 0" Spacing="1 1 1">
  <Piece Extent="0 255 0 255 0 0">
    <PointData>
      <DataArray type="Float32" Name="scalar_data" format="ascii" >0 0 0 0 0 0 0 0 0 0 0 0 0 0 0 0 0 0 0 0 0 0 0 0 0 0 0 0 0 0 0 0 0 0 0 0 0 0 0 0 0 0 0 0 0 0 0 0 0 0 0 0 0 0 0 0 0 0 0 0 0 0 0 0 0 0 0 0 0 0 0 0 0 0 0 0 0 0 0 0 0 0 0 0 0 0 0 0 0 0 0 0 0 0 0 0 0 0 0 0 0 0 0 0 0 0 0 0 0 0 0 0 0 0 0 0 0 0 0 0 0 0 0 0 0 0 0 0 0 0 0 0 0 0 0 0 0 0 0 0 0 0 0 0 0 0 0 0 0 0 0 0 0 0 0 0 0 0 0 0 0 0 0 0 0 0 0 0 0 0 0 0 0 0 0 0 0 0 0 0 0 0 0 0 0 0 0 0 0 0 0 0 0 0 0 0 0 0 0 0 0 0 0 0 0 0 0 0 0 0 0 0 0 0 0 0 0 0 0 0 0 0 0 0 0 0 0 0 0 0 0 0 0 0 0 0 0 0 0 0 0 0 0 0 0 0 0 0 0 0 0 0 0 0 0 0 
0 0 0 0 0 0 0 0 0 0 0 0 0 0 0 0 0 0 0 0 0 0 0 0 0 0 0 0 0 0 0 0 0 0 0 0 0 0 0 0 0 0 0 0 0 0 0 0 0 0 0 0 0 0 0 2.8026e-45 1.54143e-44 5.60519e-44 1.70958e-43 4.48416e-43 1.01594e-42 2.01507e-42 3.50885e-42 5.41322e-42 7.47733e-42 9.38169e-42 1.08741e-41 1.18746e-41 1.24435e-41 1.27196e-41 1.28345e-41 1.28751e-41 1.28863e-41 1.28891e-41 1.28905e-41 1.28905e-41 1.28905e-41 1.28905e-41 1.28905e-41 1.28905e-41 1.28905e-41 1.28905e-41 1.28905e-41 1.28905e-41 1.28905e-41 1.28905e-41 1.28905e-41 1.28905e-41 1.28905e-41 1.28905e-41 1.28905e-41 1.28905e-41 1.28905e-41 1.28905e-41 1.28905e-41 1.28905e-41 1.28905e-41 1.28905e-41 1.28905e-41 1.28905e-41 1.28905e-41 1.28905e-41 1.28905e-41 1.28905e-41 1.28905e-41 1.28905e-41 1.28905e-41 1.28905e-41 1.28905e-41 1.28905e-41 1.28905e-41 1.28905e-41 1.28905e-41 1.28905e-41 1.28905e-41 1.28905e-41 1.28905e-41 1.28905e-41 1.28905e-41 1.28905e-41 1.28905e-41 1.28905e-41 1.28905e-41 1.28905e-41 1.28905e-41 1.28905e-41 1.28905e-41 1.28905e-41 1.28905e-41 1.28905e-41 1.28905e-41 1.28905e-41 1.28905e-41 1.28905e-41 1.28905e-41 1.28905e-41 1.28905e-41 1.28905e-41 1.28905e-41 1.28905e-41 1.28905e-41 1.28905e-41 1.28905e-41 1.28905e-41 1.28905e-41 1.28905e-41 1.28905e-41 1.28905e-41 1.28905e-41 1.28905e-41 1.28905e-41 1.28905e-41 1.28905e-41 1.28905e-41 1.28905e-41 1.28905e-41 1.28905e-41 1.28905e-41 1.28905e-41 1.28905e-41 1.28905e-41 1.28905e-41 1.28905e-41 1.28905e-41 1.28905e-41 1.28905e-41 1.28905e-41 1.28905e-41 1.28905e-41 1.28905e-41 1.28905e-41 1.28905e-41 1.28905e-41 1.28905e-41 1.28905e-41 1.28905e-41 1.28905e-41 1.28905e-41 1.28905e-41 1.28905e-41 1.28905e-41 1.28905e-41 1.28891e-41 1.28863e-41 1.28751e-41 1.28345e-41 1.27196e-41 1.24435e-41 1.18746e-41 1.08741e-41 9.38169e-42 7.47733e-42 5.41322e-42 3.50885e-42 2.01507e-42 1.01594e-42 4.48416e-43 1.70958e-43 5.60519e-44 1.54143e-44 2.8026e-45 0 0 0 0 0 0 0 0 0 0 0 0 0 0 0 0 0 0 0 0 0 0 0 0 0 0 0 0 0 0 0 0 0 0 0 0 0 0 0 0 0 0 0 0 0 0 0 0 0 0 0 0 0 0 0 
0 0 0 0 0 0 0 0 0 0 0 0 0 0 0 0 0 0 0 0 0 0 0 0 0 0 0 0 0 0 0 0 0 0 0 0 0 0 0 0 0 0 0 0 0 0 0 0 0 0 0 0 0 4.2039e-45 2.38221e-44 1.02295e-43 3.97969e-43 1.32283e-42 3.81153e-42 9.56807e-42 2.10097e-41 4.05522e-41 6.92213e-41 1.05317e-40 1.44295e-40 1.80389e-40 2.0906e-40 2.28605e-40 2.40045e-40 2.45799e-40 2.48288e-40 2.49213e-40 2.49507e-40 2.49589e-40 2.49606e-40 2.49612e-40 2.49612e-40 2.49612e-40 2.49612e-40 2.49612e-40 2.49612e-40 2.49612e-40 2.49612e-40 2.49612e-40 2.49612e-40 2.49612e-40 2.49612e-40 2.49612e-40 2.49612e-40 2.49612e-40 2.49612e-40 2.49612e-40 2.49612e-40 2.49612e-40 2.49612e-40 2.49612e-40 2.49612e-40 2.49612e-40 2.49612e-40 2.49612e-40 2.49612e-40 2.49612e-40 2.49612e-40 2.49612e-40 2.49612e-40 2.49612e-40 2.49612e-40 2.49612e-40 2.49612e-40 2.49612e-40 2.49612e-40 2.49612e-40 2.49612e-40 2.49612e-40 2.49612e-40 2.49612e-40 2.49612e-40 2.49612e-40 2.49612e-40 2.49612e-40 2.49612e-40 2.49612e-40 2.49612e-40 2.49612e-40 2.49612e-40 2.49612e-40 2.49612e-40 2.49612e-40 2.49612e-40 2.49612e-40 2.49612e-40 2.49612e-40 2.49612e-40 2.49612e-40 2.49612e-40 2.49612e-40 2.49612e-40 2.49612e-40 2.49612e-40 2.49612e-40 2.49612e-40 2.49612e-40 2.49612e-40 2.49612e-40 2.49612e-40 2.49612e-40 2.49612e-40 2.49612e-40 2.49612e-40 2.49612e-40 2.49612e-40 2.49612e-40 2.49612e-40 2.49612e-40 2.49612e-40 2.49612e-40 2.49612e-40 2.49612e-40 2.49612e-40 2.49612e-40 2.49612e-40 2.49612e-40 2.49612e-40 2.49612e-40 2.49612e-40 2.49612e-40 2.49612e-40 2.49612e-40 2.49612e-40 2.49612e-40 2.49612e-40 2.49612e-40 2.49612e-40 2.49612e-40 2.49612e-40 2.49612e-40 2.49612e-40 2.49612e-40 2.49612e-40 2.49612e-40 2.49612e-40 2.49606e-40 2.49589e-40 2.49507e-40 2.49213e-40 2.48288e-40 2.45799e-40 2.40045e-40 2.28605e-40 2.0906e-40 1.80389e-40 1.44295e-40 1.05317e-40 6.92213e-41 4.05522e-41 2.10097e-41 9.56807e-42 3.81153e-42 1.32283e-42 3.97969e-43 1.02295e-43 2.38221e-44 4.2039e-45 0 0 0 0 0 0 0 0 0 0 0 0 0 0 0 0 0 0 0 0 0 0 0 0 0 0 0 0 0 0 0 0 0 0 0 0 0 0 0 0 0 0 0 0 0 0 0 0 0 0 0 0 0 
0 0 0 0 0 0 0 0 0 0 0 0 0 0 0 0 0 0 0 0 0 0 0 0 0 0 0 0 0 0 0 0 0 0 0 0 0 0 0 0 0 0 0 0 0 0 0 0 0 0 0 2.8026e-45 2.24208e-44 1.26117e-43 6.02558e-43 2.51113e-42 9.0706e-42 2.85529e-41 7.86199e-41 1.89995e-40 4.04481e-40 7.61901e-40 1.27699e-39 1.91853e-39 2.60883e-39 3.25038e-39 3.76547e-39 4.12289e-39 4.33737e-39 4.44875e-39 4.49881e-39 4.5183e-39 4.52486e-39 4.52676e-39 4.52724e-39 4.52734e-39 4.52736e-39 4.52737e-39 4.52737e-39 4.52737e-39 4.52737e-39 4.52737e-39 4.52737e-39 4.52737e-39 4.52737e-39 4.52737e-39 4.52737e-39 4.52737e-39 4.52737e-39 4.52737e-39 4.52737e-39 4.52737e-39 4.52737e-39 4.52737e-39 4.52737e-39 4.52737e-39 4.52737e-39 4.52737e-39 4.52737e-39 4.52737e-39 4.52737e-39 4.52737e-39 4.52737e-39 4.52737e-39 4.52737e-39 4.52737e-39 4.52737e-39 4.52737e-39 4.52737e-39 4.52737e-39 4.52737e-39 4.52737e-39 4.52737e-39 4.52737e-39 4.52737e-39 4.52737e-39 4.52737e-39 4.52737e-39 4.52737e-39 4.52737e-39 4.52737e-39 4.52737e-39 4.52737e-39 4.52737e-39 4.52737e-39 4.52737e-39 4.52737e-39 4.52737e-39 4.52737e-39 4.52737e-39 4.52737e-39 4.52737e-39 4.52737e-39 4.52737e-39 4.52737e-39 4.52737e-39 4.52737e-39 4.52737e-39 4.52737e-39 4.52737e-39 4.52737e-39 4.52737e-39 4.52737e-39 4.52737e-39 4.52737e-39 4.52737e-39 4.52737e-39 4.52737e-39 4.52737e-39 4.52737e-39 4.52737e-39 4.52737e-39 4.52737e-39 4.52737e-39 4.52737e-39 4.52737e-39 4.52737e-39 4.52737e-39 4.52737e-39 4.52737e-39 4.52737e-39 4.52737e-39 4.52737e-39 4.52737e-39 4.52737e-39 4.52737e-39 4.52737e-39 4.52737e-39 4.52737e-39 4.52737e-39 4.52737e-39 4.52737e-39 4.52737e-39 4.52737e-39 4.52737e-39 4.52737e-39 4.52737e-39 4.52737e-39 4.52737e-39 4.52736e-39 4.52734e-39 4.52724e-39 4.52676e-39 4.52486e-39 4.5183e-39 4.49881e-39 4.44875e-39 4.33737e-39 4.12289e-39 3.76547e-39 3.25038e-39 2.60883e-39 1.91853e-39 1.27699e-39 7.61901e-40 4.04481e-40 1.89995e-40 7.86199e-41 2.85529e-41 9.0706e-42 2.51113e-42 6.02558e-43 1.26117e-43 2.24208e-44 2.8026e-45 0 0 0 0 0 0 0 0 0 0 0 0 0 0 0 0 0 0 0 0 0 0 0 0 0 0 0 0 0 0 0 0 0 0 0 0 0 0 0 0 0 0 0 0 0 0 0 0 0 0 0 
0 0 0 0 0 0 0 0 0 0 0 0 0 0 0 0 0 0 0 0 0 0 0 0 0 0 0 0 0 0 0 0 0 0 0 0 0 0 0 0 0 0 0 0 0 0 0 0 0 1.4013e-45 1.4013e-44 1.02295e-43 6.12367e-43 3.16413e-42 1.42036e-41 5.55307e-41 1.89938e-40 5.70313e-40 1.50789e-39 3.52145e-39 7.28873e-39 1.34266e-38 2.21299e-38 3.28649e-38 4.4378e-38 5.5113e-38 6.38164e-38 6.99542e-38 7.37215e-38 7.5735e-38 7.66726e-38 7.7053e-38 7.71874e-38 7.72287e-38 7.72398e-38 7.72423e-38 7.72428e-38 7.72429e-38 7.72429e-38 7.72429e-38 7.72429e-38 7.72429e-38 7.72429e-38 7.72429e-38 7.72429e-38 7.72429e-38 7.72429e-38 7.72429e-38 7.72429e-38 7.72429e-38 7.72429e-38 7.72429e-38 7.72429e-38 7.72429e-38 7.72429e-38 7.72429e-38 7.72429e-38 7.72429e-38 7.72429e-38 7.72429e-38 7.72429e-38 7.72429e-38 7.72429e-38 7.72429e-38 7.72429e-38 7.72429e-38 7.72429e-38 7.72429e-38 7.72429e-38 7.72429e-38 7.72429e-38 7.72429e-38 7.72429e-38 7.72429e-38 7.72429e-38 7.72429e-38 7.72429e-38 7.72429e-38 7.72429e-38 7.72429e-38 7.72429e-38 7.72429e-38 7.72429e-38 7.72429e-38 7.72429e-38 7.72429e-38 7.72429e-38 7.72429e-38 7.72429e-38 7.72429e-38 7.72429e-38 7.72429e-38 7.72429e-38 7.72429e-38 7.72429e-38 7.72429e-38 7.72429e-38 7.72429e-38 7.72429e-38 7.72429e-38 7.72429e-38 7.72429e-38 7.72429e-38 7.72429e-38 7.72429e-38 7.72429e-38 7.72429e-38 7.72429e-38 7.72429e-38 7.72429e-38 7.72429e-38 7.72429e-38 7.72429e-38 7.72429e-38 7.72429e-38 7.72429e-38 7.72429e-38 7.72429e-38 7.72429e-38 7.72429e-38 7.72429e-38 7.72429e-38 7.72429e-38 7.72429e-38 7.72429e-38 7.72429e-38 7.72429e-38 7.72429e-38 7.72429e-38 7.72429e-38 7.72429e-38 7.72429e-38 7.72429e-38 7.72429e-38 7.72429e-38 7.72429e-38 7.72429e-38 7.72429e-38 7.72429e-38 7.72428e-38 7.72423e-38 7.72398e-38 7.72287e-38 7.71874e-38 7.7053e-38 7.66726e-38 7.5735e-38 7.37215e-38 6.99542e-38 6.38164e-38 5.5113e-38 4.4378e-38 3.28649e-38 2.21299e-38 1.34266e-38 7.28873e-39 3.52145e-39 1.50789e-39 5.70313e-40 1.89938e-40 5.55307e-41 1.42036e-41 3.16413e-42 6.12367e-43 1.02295e-43 1.4013e-44 1.4013e-45 0 0 0 0 0 0 0 0 0 0 0 0 0 0 0 0 0 0 0 0 0 0 0 0 0 0 0 0 0 0 0 0 0 0 0 0 0 0 0 0 0 0 0 0 0 0 0 0 0 
0 0 0 0 0 0 0 0 0 0 0 0 0 0 0 0 0 0 0 0 0 0 0 0 0 0 0 0 0 0 0 0 0 0 0 0 0 0 0 0 0 0 0 0 0 0 0 0 5.60519e-45 5.74532e-44 4.24593e-43 2.72412e-42 1.50836e-41 7.26559e-41 3.05964e-40 1.13105e-39 3.68276e-39 1.05931e-38 2.69912e-38 6.10937e-38 1.23238e-37 2.22422e-37 3.61003e-37 5.30419e-37 7.11577e-37 8.80993e-37 1.01957e-36 1.11876e-36 1.1809e-36 1.215e-36 1.2314e-36 1.23831e-36 1.24086e-36 1.24169e-36 1.24192e-36 1.24198e-36 1.24199e-36 1.242e-36 1.242e-36 1.242e-36 1.242e-36 1.242e-36 1.242e-36 1.242e-36 1.242e-36 1.242e-36 1.242e-36 1.242e-36 1.242e-36 1.242e-36 1.242e-36 1.242e-36 1.242e-36 1.242e-36 1.242e-36 1.242e-36 1.242e-36 1.242e-36 1.242e-36 1.242e-36 1.242e-36 1.242e-36 1.242e-36 1.242e-36 1.242e-36 1.242e-36 1.242e-36 1.242e-36 1.242e-36 1.242e-36 1.242e-36 1.242e-36 1.242e-36 1.242e-36 1.242e-36 1.242e-36 1.242e-36 1.242e-36 1.242e-36 1.242e-36 1.242e-36 1.242e-36 1.242e-36 1.242e-36 1.242e-36 1.242e-36 1.242e-36 1.242e-36 1.242e-36 1.242e-36 1.242e-36 1.242e-36 1.242e-36 1.242e-36 1.242e-36 1.242e-36 1.242e-36 1.242e-36 1.242e-36 1.242e-36 1.242e-36 1.242e-36 1.242e-36 1.242e-36 1.242e-36 1.242e-36 1.242e-36 1.242e-36 1.242e-36 1.242e-36 1.242e-36 1.242e-36 1.242e-36 1.242e-36 1.242e-36 1.242e-36 1.242e-36 1.242e-36 1.242e-36 1.242e-36 1.242e-36 1.242e-36 1.242e-36 1.242e-36 1.242e-36 1.242e-36 1.242e-36 1.242e-36 1.242e-36 1.242e-36 1.242e-36 1.242e-36 1.242e-36 1.242e-36 1.242e-36 1.242e-36 1.242e-36 1.242e-36 1.242e-36 1.24199e-36 1.24198e-36 1.24192e-36 1.24169e-36 1.24086e-36 1.23831e-36 1.2314e-36 1.215e-36 1.1809e-36 1.11876e-36 1.01957e-36 8.80993e-37 7.11577e-37 5.30419e-37 3.61003e-37 2.22422e-37 1.23238e-37 6.10937e-38 2.69912e-38 1.05931e-38 3.68276e-39 1.13105e-39 3.05964e-40 7.26559e-41 1.50836e-41 2.72412e-42 4.24593e-43 5.74532e-44 5.60519e-45 0 0 0 0 0 0 0 0 0 0 0 0 0 0 0 0 0 0 0 0 0 0 0 0 0 0 0 0 0 0 0 0 0 0 0 0 0 0 0 0 0 0 0 0 0 0 0 0 
0 0 0 0 0 0 0 0 0 0 0 0 0 0 0 0 0 0 0 0 0 0 0 0 0 0 0 0 0 0 0 0 0 0 0 0 0 0 0 0 0 0 0 0 0 0 1.4013e-45 2.10195e-44 2.05991e-43 1.63391e-42 1.11291e-41 6.56817e-41 3.38167e-40 1.5268e-39 6.07022e-39 2.13244e-38 6.63824e-38 1.83589e-37 4.52205e-37 9.94619e-37 1.95945e-36 3.47058e-36 5.55357e-36 8.07939e-36 1.07729e-35 1.32988e-35 1.53818e-35 1.68929e-35 1.78577e-35 1.84001e-35 1.86687e-35 1.8786e-35 1.8831e-35 1.88463e-35 1.88508e-35 1.8852e-35 1.88523e-35 1.88523e-35 1.88523e-35 1.88523e-35 1.88523e-35 1.88523e-35 1.88523e-35 1.88523e-35 1.88523e-35 1.88523e-35 1.88523e-35 1.88523e-35 1.88523e-35 1.88523e-35 1.88523e-35 1.88523e-35 1.88523e-35 1.88523e-35 1.88523e-35 1.88523e-35 1.88523e-35 1.88523e-35 1.88523e-35 1.88523e-35 1.88523e-35 1.88523e-35 1.88523e-35 1.88523e-35 1.88523e-35 1.88523e-35 1.88523e-35 1.88523e-35 1.88523e-35 1.88523e-35 1.88523e-35 1.88523e-35 1.88523e-35 1.88523e-35 1.88523e-35 1.88523e-35 1.88523e-35 1.88523e-35 1.88523e-35 1.88523e-35 1.88523e-35 1.88523e-35 1.88523e-35 1.88523e-35 1.88523e-35 1.88523e-35 1.88523e-35 1.88523e-35 1.88523e-35 1.88523e-35 1.88523e-35 1.88523e-35 1.88523e-35 1.88523e-35 1.88523e-35 1.88523e-35 1.88523e-35 1.88523e-35 1.88523e-35 1.88523e-35 1.88523e-35 1.88523e-35 1.88523e-35 1.88523e-35 1.88523e-35 1.88523e-35 1.88523e-35 1.88523e-35 1.88523e-35 1.88523e-35 1.88523e-35 1.88523e-35 1.88523e-35 1.88523e-35 1.88523e-35 1.88523e-35 1.88523e-35 1.88523e-35 1.88523e-35 1.88523e-35 1.88523e-35 1.88523e-35 1.88523e-35 1.88523e-35 1.88523e-35 1.88523e-35 1.88523e-35 1.88523e-35 1.88523e-35 1.88523e-35 1.88523e-35 1.88523e-35 1.88523e-35 1.88523e-35 1.88523e-35 1.88523e-35 1.88523e-35 1.88523e-35 1.88523e-35 1.88523e-35 1.8852e-35 1.88508e-35 1.88463e-35 1.8831e-35 1.8786e-35 1.86687e-35 1.84001e-35 1.78577e-35 1.68929e-35 1.53818e-35 1.32988e-35 1.07729e-35 8.07939e-36 5.55357e-36 3.47058e-36 1.95945e-36 9.94619e-37 4.52205e-37 1.83589e-37 6.63824e-38 2.13244e-38 6.07022e-39 1.5268e-39 3.38167e-40 6.56817e-41 1.11291e-41 1.63391e-42 2.05991e-43 2.10195e-44 1.4013e-45 0 0 0 0 0 0 0 0 0 0 0 0 0 0 0 0 0 0 0 0 0 0 0 0 0 0 0 0 0 0 0 0 0 0 0 0 0 0 0 0 0 0 0 0 0 0 
0 0 0 0 0 0 0 0 0 0 0 0 0 0 0 0 0 0 0 0 0 0 0 0 0 0 0 0 0 0 0 0 0 0 0 0 0 0 0 0 0 0 0 0 0 5.60519e-45 7.00649e-44 6.92241e-43 5.80698e-42 4.18848e-41 2.62507e-40 1.43911e-39 6.93768e-39 2.95358e-38 1.1143e-37 3.73621e-37 1.11613e-36 2.97748e-36 7.10904e-36 1.52289e-35 2.93549e-35 5.1099e-35 8.07011e-35 1.16329e-34 1.54228e-34 1.89856e-34 2.19458e-34 2.41203e-34 2.55329e-34 2.63448e-34 2.6758e-34 2.69441e-34 2.70184e-34 2.70446e-34 2.70528e-34 2.70551e-34 2.70556e-34 2.70557e-34 2.70557e-34 2.70557e-34 2.70557e-34 2.70557e-34 2.70558e-34 2.70558e-34 2.70558e-34 2.70558e-34 2.70558e-34 2.70558e-34 2.70558e-34 2.70558e-34 2.70558e-34 2.70558e-34 2.70558e-34 2.70558e-34 2.70558e-34 2.70558e-34 2.70558e-34 2.70558e-34 2.70558e-34 2.70558e-34 2.70558e-34 2.70558e-34 2.70558e-34 2.70558e-34 2.70558e-34 2.70558e-34 2.70558e-34 2.70558e-34 2.70558e-34 2.70558e-34 2.70558e-34 2.70558e-34 2.70558e-34 2.70558e-34 2.70558e-34 2.70558e-34 2.70558e-34 2.70558e-34 2.70558e-34 2.70558e-34 2.70558e-34 2.70558e-34 2.70558e-34 2.70558e-34 2.70558e-34 2.70558e-34 2.70558e-34 2.70558e-34 2.70558e-34 2.70558e-34 2.70558e-34 2.70558e-34 2.70558e-34 2.70558e-34 2.70558e-34 2.70558e-34 2.70558e-34 2.70558e-34 2.70558e-34 2.70558e-34 2.70558e-34 2.70558e-34 2.70558e-34 2.70558e-34 2.70558e-34 2.70558e-34 2.70558e-34 2.70558e-34 2.70558e-34 2.70558e-34 2.70558e-34 2.70558e-34 2.70558e-34 2.70558e-34 2.70558e-34 2.70558e-34 2.70558e-34 2.70558e-34 2.70558e-34 2.70558e-34 2.70558e-34 2.70558e-34 2.70558e-34 2.70558e-34 2.70558e-34 2.70558e-34 2.70558e-34 2.70558e-34 2.70558e-34 2.70558e-34 2.70558e-34 2.70558e-34 2.70558e-34 2.70558e-34 2.70557e-34 2.70557e-34 2.70557e-34 2.70557e-34 2.70557e-34 2.70556e-34 2.70551e-34 2.70528e-34 2.70446e-34 2.70184e-34 2.69441e-34 2.6758e-34 2.63448e-34 2.55329e-34 2.41203e-34 2.19458e-34 1.89856e-34 1.54228e-34 1.16329e-34 8.07011e-35 5.1099e-35 2.93549e-35 1.52289e-35 7.10904e-36 2.97748e-36 1.11613e-36 3.73621e-37 1.1143e-37 2.95358e-38 6.93768e-39 1.43911e-39 2.62507e-40 4.18848e-41 5.80698e-42 6.92241e-43 7.00649e-44 5.60519e-45 0 0 0 0 0 0 0 0 0 0 0 0 0 0 0 0 0 0 0 0 0 0 0 0 0 0 0 0 0 0 0 0 0 0 0 0 0 0 0 0 0 0 0 0 0 
0 0 0 0 0 0 0 0 0 0 0 0 0 0 0 0 0 0 0 0 0 0 0 0 0 0 0 0 0 0 0 0 0 0 0 0 0 0 0 0 0 0 0 1.4013e-45 1.68156e-44 2.10195e-43 2.16641e-42 1.91263e-41 1.45708e-40 9.66714e-40 5.62373e-39 2.88412e-38 1.30965e-37 5.28433e-37 1.90014e-36 6.10408e-36 1.75567e-35 4.53045e-35 1.05105e-34 2.19733e-34 4.15102e-34 7.1106e-34 1.10938e-33 1.58549e-33 2.09078e-33 2.56689e-33 2.96521e-33 3.26117e-33 3.45654e-33 3.57117e-33 3.63097e-33 3.65872e-33 3.67017e-33 3.67437e-33 3.67575e-33 3.67614e-33 3.67624e-33 3.67627e-33 3.67627e-33 3.67627e-33 3.67627e-33 3.67627e-33 3.67627e-33 3.67627e-33 3.67627e-33 3.67627e-33 3.67627e-33 3.67627e-33 3.67627e-33 3.67627e-33 3.67627e-33 3.67627e-33 3.67627e-33 3.67627e-33 3.67627e-33 3.67627e-33 3.67627e-33 3.67627e-33 3.67627e-33 3.67627e-33 3.67627e-33 3.67627e-33 3.67627e-33 3.67627e-33 3.67627e-33 3.67627e-33 3.67627e-33 3.67627e-33 3.67627e-33 3.67627e-33 3.67627e-33 3.67627e-33 3.67627e-33 3.67627e-33 3.67627e-33 3.67627e-33 3.67627e-33 3.67627e-33 3.67627e-33 3.67627e-33 3.67627e-33 3.67627e-33 3.67627e-33 3.67627e-33 3.67627e-33 3.67627e-33 3.67627e-33 3.67627e-33 3.67627e-33 3.67627e-33 3.67627e-33 3.67627e-33 3.67627e-33 3.67627e-33 3.67627e-33 3.67627e-33 3.67627e-33 3.67627e-33 3.67627e-33 3.67627e-33 3.67627e-33 3.67627e-33 3.67627e-33 3.67627e-33 3.67627e-33 3.67627e-33 3.67627e-33 3.67627e-33 3.67627e-33 3.67627e-33 3.67627e-33 3.67627e-33 3.67627e-33 3.67627e-33 3.67627e-33 3.67627e-33 3.67627e-33 3.67627e-33 3.67627e-33 3.67627e-33 3.67627e-33 3.67627e-33 3.67627e-33 3.67627e-33 3.67627e-33 3.67627e-33 3.67627e-33 3.67627e-33 3.67627e-33 3.67627e-33 3.67627e-33 3.67627e-33 3.67627e-33 3.67627e-33 3.67627e-33 3.67627e-33 3.67627e-33 3.67627e-33 3.67627e-33 3.67624e-33 3.67614e-33 3.67575e-33 3.67437e-33 3.67017e-33 3.65872e-33 3.63097e-33 3.57117e-33 3.45654e-33 3.26117e-33 2.96521e-33 2.56689e-33 2.09078e-33 1.58549e-33 1.10938e-33 7.1106e-34 4.15102e-34 2.19733e-34 1.05105e-34 4.53045e-35 1.75567e-35 6.10408e-36 1.90014e-36 5.28433e-37 1.30965e-37 2.88412e-38 5.62373e-39 9.66714e-40 1.45708e-40 1.91263e-41 2.16641e-42 2.10195e-43 1.68156e-44 1.4013e-45 0 0 0 0 0 0 0 0 0 0 0 0 0 0 0 0 0 0 0 0 0 0 0 0 0 0 0 0 0 0 0 0 0 0 0 0 0 0 0 0 0 0 0 
0 0 0 0 0 0 0 0 0 0 0 0 0 0 0 0 0 0 0 0 0 0 0 0 0 0 0 0 0 0 0 0 0 0 0 0 0 0 0 0 0 0 2.8026e-45 4.48416e-44 5.81539e-43 6.31705e-42 5.85771e-41 4.70035e-40 3.29161e-39 2.02563e-38 1.10148e-37 5.3161e-37 2.28549e-36 8.77879e-36 3.02024e-35 9.32682e-35 2.59031e-34 6.48195e-34 1.46433e-33 2.99296e-33 5.54937e-33 9.36511e-33 1.44464e-32 2.04815e-32 2.68728e-32 3.29079e-32 3.79892e-32 4.1805e-32 4.43614e-32 4.589e-32 4.67061e-32 4.70953e-32 4.72611e-32 4.73241e-32 4.73456e-32 4.7352e-32 4.73538e-32 4.73542e-32 4.73543e-32 4.73543e-32 4.73543e-32 4.73543e-32 4.73543e-32 4.73543e-32 4.73543e-32 4.73543e-32 4.73543e-32 4.73543e-32 4.73543e-32 4.73543e-32 4.73543e-32 4.73543e-32 4.73543e-32 4.73543e-32 4.73543e-32 4.73543e-32 4.73543e-32 4.73543e-32 4.73543e-32 4.73543e-32 4.73543e-32 4.73543e-32 4.73543e-32 4.73543e-32 4.73543e-32 4.73543e-32 4.73543e-32 4.73543e-32 4.73543e-32 4.73543e-32 4.73543e-32 4.73543e-32 4.73543e-32 4.73543e-32 4.73543e-32 4.73543e-32 4.73543e-32 4.73543e-32 4.73543e-32 4.73543e-32 4.73543e-32 4.73543e-32 4.73543e-32 4.73543e-32 4.73543e-32 4.73543e-32 4.73543e-32 4.73543e-32 4.73543e-32 4.73543e-32 4.73543e-32 4.73543e-32 4.73543e-32 4.73543e-32 4.73543e-32 4.73543e-32 4.73543e-32 4.73543e-32 4.73543e-32 4.73543e-32 4.73543e-32 4.73543e-32 4.73543e-32 4.73543e-32 4.73543e-32 4.73543e-32 4.73543e-32 4.73543e-32 4.73543e-32 4.73543e-32 4.73543e-32 4.73543e-32 4.73543e-32 4.73543e-32 4.73543e-32 4.73543e-32 4.73543e-32 4.73543e-32 4.73543e-32 4.73543e-32 4.73543e-32 4.73543e-32 4.73543e-32 4.73543e-32 4.73543e-32 4.73543e-32 4.73543e-32 4.73543e-32 4.73543e-32 4.73543e-32 4.73543e-32 4.73543e-32 4.73543e-32 4.73543e-32 4.73543e-32 4.73543e-32 4.73543e-32 4.73543e-32 4.73542e-32 4.73538e-32 4.7352e-32 4.73456e-32 4.73241e-32 4.72611e-32 4.70953e-32 4.67061e-32 4.589e-32 4.43614e-32 4.1805e-32 3.79892e-32 3.29079e-32 2.68728e-32 2.04815e-32 1.44464e-32 9.36511e-33 5.54937e-33 2.99296e-33 1.46433e-33 6.48195e-34 2.59031e-34 9.32682e-35 3.02024e-35 8.77879e-36 2.28549e-36 5.3161e-37 1.10148e-37 2.02563e-38 3.29161e-39 4.70035e-40 5.85771e-41 6.31705e-42 5.81539e-43 4.48416e-44 2.8026e-45 0 0 0 0 0 0 0 0 0 0 0 0 0 0 0 0 0 0 0 0 0 0 0 0 0 0 0 0 0 0 0 0 0 0 0 0 0 0 0 0 0 0 
0 0 0 0 0 0 0 0 0 0 0 0 0 0 0 0 0 0 0 0 0 0 0 0 0 0 0 0 0 0 0 0 0 0 0 0 0 0 0 0 0 7.00649e-45 1.13505e-43 1.5148e-42 1.71925e-41 1.67221e-40 1.40985e-39 1.0394e-38 6.7475e-38 3.87871e-37 1.98331e-36 9.05441e-36 3.70188e-35 1.35888e-34 4.48814e-34 1.33629e-33 3.59282e-33 8.73803e-33 1.92586e-32 3.85456e-32 7.02377e-32 1.16897e-31 1.78424e-31 2.51068e-31 3.27849e-31 4.00493e-31 4.6202e-31 5.08679e-31 5.40371e-31 5.59658e-31 5.70179e-31 5.75324e-31 5.7758e-31 5.78468e-31 5.78781e-31 5.7888e-31 5.78908e-31 5.78915e-31 5.78916e-31 5.78917e-31 5.78917e-31 5.78917e-31 5.78917e-31 5.78917e-31 5.78917e-31 5.78917e-31 5.78917e-31 5.78917e-31 5.78917e-31 5.78917e-31 5.78917e-31 5.78917e-31 5.78917e-31 5.78917e-31 5.78917e-31 5.78917e-31 5.78917e-31 5.78917e-31 5.78917e-31 5.78917e-31 5.78917e-31 5.78917e-31 5.78917e-31 5.78917e-31 5.78917e-31 5.78917e-31 5.78917e-31 5.78917e-31 5.78917e-31 5.78917e-31 5.78917e-31 5.78917e-31 5.78917e-31 5.78917e-31 5.78917e-31 5.78917e-31 5.78917e-31 5.78917e-31 5.78917e-31 5.78917e-31 5.78917e-31 5.78917e-31 5.78917e-31 5.78917e-31 5.78917e-31 5.78917e-31 5.78917e-31 5.78917e-31 5.78917e-31 5.78917e-31 5.78917e-31 5.78917e-31 5.78917e-31 5.78917e-31 5.78917e-31 5.78917e-31 5.78917e-31 5.78917e-31 5.78917e-31 5.78917e-31 5.78917e-31 5.78917e-31 5.78917e-31 5.78917e-31 5.78917e-31 5.78917e-31 5.78917e-31 5.78917e-31 5.78917e-31 5.78917e-31 5.78917e-31 5.78917e-31 5.78917e-31 5.78917e-31 5.78917e-31 5.78917e-31 5.78917e-31 5.78917e-31 5.78917e-31 5.78917e-31 5.78917e-31 5.78917e-31 5.78917e-31 5.78917e-31 5.78917e-31 5.78917e-31 5.78917e-31 5.78917e-31 5.78917e-31 5.78917e-31 5.78917e-31 5.78917e-31 5.78917e-31 5.78917e-31 5.78917e-31 5.78917e-31 5.78917e-31 5.78916e-31 5.78915e-31 5.78908e-31 5.7888e-31 5.78781e-31 5.78468e-31 5.7758e-31 5.75324e-31 5.70179e-31 5.59658e-31 5.40371e-31 5.08679e-31 4.6202e-31 4.00493e-31 3.27849e-31 2.51068e-31 1.78424e-31 1.16897e-31 7.02377e-32 3.85456e-32 1.92586e-32 8.73803e-33 3.59282e-33 1.33629e-33 4.48814e-34 1.35888e-34 3.70188e-35 9.05441e-36 1.98331e-36 3.87871e-37 6.7475e-38 1.0394e-38 1.40985e-39 1.67221e-40 1.71925e-41 1.5148e-42 1.13505e-43 7.00649e-45 0 0 0 0 0 0 0 0 0 0 0 0 0 0 0 0 0 0 0 0 0 0 0 0 0 0 0 0 0 0 0 0 0 0 0 0 0 0 0 0 0 
0 0 0 0 0 0 0 0 0 0 0 0 0 0 0 0 0 0 0 0 0 0 0 0 0 0 0 0 0 0 0 0 0 0 0 0 0 0 0 0 1.54143e-44 2.64845e-43 3.69382e-42 4.38032e-41 4.45928e-40 3.94163e-39 3.05198e-38 2.08471e-37 1.2634e-36 6.82456e-36 3.29835e-35 1.43074e-34 5.58456e-34 1.96577e-33 6.25173e-33 1.79937e-32 4.6943e-32 1.11183e-31 2.39481e-31 4.7004e-31 8.42742e-31 1.3845e-30 2.09238e-30 2.92358e-30 3.80051e-30 4.63172e-30 5.3396e-30 5.88135e-30 6.25405e-30 6.48461e-30 6.61291e-30 6.67715e-30 6.7061e-30 6.71784e-30 6.72213e-30 6.72353e-30 6.72395e-30 6.72406e-30 6.72409e-30 6.72409e-30 6.72409e-30 6.72409e-30 6.72409e-30 6.72409e-30 6.72409e-30 6.72409e-30 6.72409e-30 6.72409e-30 6.72409e-30 6.72409e-30 6.72409e-30 6.72409e-30 6.72409e-30 6.72409e-30 6.72409e-30 6.72409e-30 6.72409e-30 6.72409e-30 6.72409e-30 6.72409e-30 6.72409e-30 6.72409e-30 6.72409e-30 6.72409e-30 6.72409e-30 6.72409e-30 6.72409e-30 6.72409e-30 6.72409e-30 6.72409e-30 6.72409e-30 6.72409e-30 6.72409e-30 6.72409e-30 6.72409e-30 6.72409e-30 6.72409e-30 6.72409e-30 6.72409e-30 6.72409e-30 6.72409e-30 6.72409e-30 6.72409e-30 6.72409e-30 6.72409e-30 6.72409e-30 6.72409e-30 6.72409e-30 6.72409e-30 6.72409e-30 6.72409e-30 6.72409e-30 6.72409e-30 6.72409e-30 6.72409e-30 6.72409e-30 6.72409e-30 6.72409e-30 6.72409e-30 6.72409e-30 6.72409e-30 6.72409e-30 6.72409e-30 6.72409e-30 6.72409e-30 6.72409e-30 6.72409e-30 6.72409e-30 6.72409e-30 6.72409e-30 6.72409e-30 6.72409e-30 6.72409e-30 6.72409e-30 6.72409e-30 6.72409e-30 6.72409e-30 6.72409e-30 6.72409e-30 6.72409e-30 6.72409e-30 6.72409e-30 6.72409e-30 6.72409e-30 6.72409e-30 6.72409e-30 6.72409e-30 6.72409e-30 6.72409e-30 6.72409e-30 6.72409e-30 6.72409e-30 6.72409e-30 6.72409e-30 6.72409e-30 6.72409e-30 6.72409e-30 6.72409e-30 6.72406e-30 6.72395e-30 6.72353e-30 6.72213e-30 6.71784e-30 6.7061e-30 6.67715e-30 6.61291e-30 6.48461e-30 6.25405e-30 5.88135e-30 5.3396e-30 4.63172e-30 3.80051e-30 2.92358e-30 2.09238e-30 1.3845e-30 8.42742e-31 4.7004e-31 2.39481e-31 1.11183e-31 4.6943e-32 1.79937e-32 6.25173e-33 1.96577e-33 5.58456e-34 1.43074e-34 3.29835e-35 6.82456e-36 1.2634e-36 2.08471e-37 3.05198e-38 3.94163e-39 4.45928e-40 4.38032e-41 3.69382e-42 2.64845e-43 1.54143e-44 0 0 0 0 0 0 0 0 0 0 0 0 0 0 0 0 0 0 0 0 0 0 0 0 0 0 0 0 0 0 0 0 0 0 0 0 0 0 0 0 
0 0 0 0 0 0 0 0 0 0 0 0 0 0 0 0 0 0 0 0 0 0 0 0 0 0 0 0 0 0 0 0 0 0 0 0 0 0 1.4013e-45 3.36312e-44 5.80138e-43 8.46104e-42 1.04662e-40 1.11306e-39 1.02938e-38 8.35285e-38 5.98959e-37 3.81742e-36 2.1727e-35 1.10857e-34 5.08682e-34 2.10475e-33 7.87029e-33 2.66462e-32 8.18176e-32 2.28178e-31 5.78812e-31 1.33745e-30 2.81968e-30 5.43426e-30 9.59676e-30 1.55758e-29 2.33219e-29 3.2371e-29 4.19017e-29 5.09508e-29 5.8697e-29 6.4676e-29 6.88385e-29 7.1453e-29 7.29353e-29 7.36939e-29 7.40445e-29 7.41909e-29 7.42461e-29 7.42648e-29 7.42706e-29 7.42722e-29 7.42726e-29 7.42727e-29 7.42727e-29 7.42727e-29 7.42727e-29 7.42727e-29 7.42727e-29 7.42727e-29 7.42727e-29 7.42727e-29 7.42727e-29 7.42727e-29 7.42727e-29 7.42727e-29 7.42727e-29 7.42727e-29 7.42727e-29 7.42727e-29 7.42727e-29 7.42727e-29 7.42727e-29 7.42727e-29 7.42727e-29 7.42727e-29 7.42727e-29 7.42727e-29 7.42727e-29 7.42727e-29 7.42727e-29 7.42727e-29 7.42727e-29 7.42727e-29 7.42727e-29 7.42727e-29 7.42727e-29 7.42727e-29 7.42727e-29 7.42727e-29 7.42727e-29 7.42727e-29 7.42727e-29 7.42727e-29 7.42727e-29 7.42727e-29 7.42727e-29 7.42727e-29 7.42727e-29 7.42727e-29 7.42727e-29 7.42727e-29 7.42727e-29 7.42727e-29 7.42727e-29 7.42727e-29 7.42727e-29 7.42727e-29 7.42727e-29 7.42727e-29 7.42727e-29 7.42727e-29 7.42727e-29 7.42727e-29 7.42727e-29 7.42727e-29 7.42727e-29 7.42727e-29 7.42727e-29 7.42727e-29 7.42727e-29 7.42727e-29 7.42727e-29 7.42727e-29 7.42727e-29 7.42727e-29 7.42727e-29 7.42727e-29 7.42727e-29 7.42727e-29 7.42727e-29 7.42727e-29 7.42727e-29 7.42727e-29 7.42727e-29 7.42727e-29 7.42727e-29 7.42727e-29 7.42727e-29 7.42727e-29 7.42727e-29 7.42727e-29 7.42727e-29 7.42727e-29 7.42727e-29 7.42727e-29 7.42727e-29 7.42727e-29 7.42727e-29 7.42727e-29 7.42727e-29 7.42726e-29 7.42722e-29 7.42706e-29 7.42648e-29 7.42461e-29 7.41909e-29 7.40445e-29 7.36939e-29 7.29353e-29 7.1453e-29 6.88385e-29 6.4676e-29 5.8697e-29 5.09508e-29 4.19017e-29 3.2371e-29 2.33219e-29 1.55758e-29 9.59676e-30 5.43426e-30 2.81968e-30 1.33745e-30 5.78812e-31 2.28178e-31 8.18176e-32 2.66462e-32 7.87029e-33 2.10475e-33 5.08682e-34 1.10857e-34 2.1727e-35 3.81742e-36 5.98959e-37 8.35285e-38 1.02938e-38 1.11306e-39 1.04662e-40 8.46104e-42 5.80138e-43 3.36312e-44 1.4013e-45 0 0 0 0 0 0 0 0 0 0 0 0 0 0 0 0 0 0 0 0 0 0 0 0 0 0 0 0 0 0 0 0 0 0 0 0 0 0 
0 0 0 0 0 0 0 0 0 0 0 0 0 0 0 0 0 0 0 0 0 0 0 0 0 0 0 0 0 0 0 0 0 0 0 0 0 2.8026e-45 6.44597e-44 1.20091e-42 1.82351e-41 2.34895e-40 2.60506e-39 2.51599e-38 2.13531e-37 1.604e-36 1.0727e-35 6.41744e-35 3.44798e-34 1.66918e-33 7.30053e-33 2.89136e-32 1.03891e-31 3.39233e-31 1.00808e-30 2.72991e-30 6.74579e-30 1.52317e-29 3.14751e-29 5.96339e-29 1.03829e-28 1.6661e-28 2.473e-28 3.41115e-28 4.39764e-28 5.33578e-28 6.14269e-28 6.77049e-28 7.21244e-28 7.49403e-28 7.65646e-28 7.74132e-28 7.78148e-28 7.7987e-28 7.80539e-28 7.80774e-28 7.80849e-28 7.80871e-28 7.80876e-28 7.80878e-28 7.80878e-28 7.80878e-28 7.80878e-28 7.80878e-28 7.80878e-28 7.80878e-28 7.80878e-28 7.80878e-28 7.80878e-28 7.80878e-28 7.80878e-28 7.80878e-28 7.80878e-28 7.80878e-28 7.80878e-28 7.80878e-28 7.80878e-28 7.80878e-28 7.80878e-28 7.80878e-28 7.80878e-28 7.80878e-28 7.80878e-28 7.80878e-28 7.80878e-28 7.80878e-28 7.80878e-28 7.80878e-28 7.80878e-28 7.80878e-28 7.80878e-28 7.80878e-28 7.80878e-28 7.80878e-28 7.80878e-28 7.80878e-28 7.80878e-28 7.80878e-28 7.80878e-28 7.80878e-28 7.80878e-28 7.80878e-28 7.80878e-28 7.80878e-28 7.80878e-28 7.80878e-28 7.80878e-28 7.80878e-28 7.80878e-28 7.80878e-28 7.80878e-28 7.80878e-28 7.80878e-28 7.80878e-28 7.80878e-28 7.80878e-28 7.80878e-28 7.80878e-28 7.80878e-28 7.80878e-28 7.80878e-28 7.80878e-28 7.80878e-28 7.80878e-28 7.80878e-28 7.80878e-28 7.80878e-28 7.80878e-28 7.80878e-28 7.80878e-28 7.80878e-28 7.80878e-28 7.80878e-28 7.80878e-28 7.80878e-28 7.80878e-28 7.80878e-28 7.80878e-28 7.80878e-28 7.80878e-28 7.80878e-28 7.80878e-28 7.80878e-28 7.80878e-28 7.80878e-28 7.80878e-28 7.80878e-28 7.80878e-28 7.80878e-28 7.80878e-28 7.80878e-28 7.80878e-28 7.80878e-28 7.80878e-28 7.80878e-28 7.80878e-28 7.80878e-28 7.80876e-28 7.80871e-28 7.80849e-28 7.80774e-28 7.80539e-28 7.7987e-28 7.78148e-28 7.74132e-28 7.65646e-28 7.49403e-28 7.21244e-28 6.77049e-28 6.14269e-28 5.33578e-28 4.39764e-28 3.41115e-28 2.473e-28 1.6661e-28 1.03829e-28 5.96339e-29 3.14751e-29 1.52317e-29 6.74579e-30 2.72991e-30 1.00808e-30 3.39233e-31 1.03891e-31 2.89136e-32 7.30053e-33 1.66918e-33 3.44798e-34 6.41744e-35 1.0727e-35 1.604e-36 2.13531e-37 2.51599e-38 2.60506e-39 2.34895e-40 1.82351e-41 1.20091e-42 6.44597e-44 2.8026e-45 0 0 0 0 0 0 0 0 0 0 0 0 0 0 0 0 0 0 0 0 0 0 0 0 0 0 0 0 0 0 0 0 0 0 0 0 0 