<?xml version="1.0"?>
<VTKFile type="ImageData" version="0.1" byte_order="LittleEndian">
  <ImageData WholeExtent="0 255 0 255 0 0" Origin="0 0 0" Spacing="1 1 1">
  <Piece Extent="0 255 0 255 0 0">
    <PointData>
      <DataArray type="Float32" Name="scalar_data" format="ascii" >0 0 0 0 0 0 0 0 0 0 0 0 0 0 0 0 0 0 0 0 0 0 0 0 0 0 0 0 0 0 0 0 0 0 0 0 0 0 0 0 0 0 0 0 0 0 0 0 0 0 0 0 0 0 0 0 0 0 0 0 0 0 0 0 0 0 0 0 0 0 0 0 0 0 0 0 0 0 0 0 0 0 0 0 0 0 0 0 0 0 0 0 0 0 0 0 0 0 0 0 0 0 0 0 0 0 0 0 0 0 0 0 0 0 0 0 0 0 0 0 0 0 0 0 0 0 0 0 0 0 0 0 0 0 0 0 0 0 0 0 0 0 0 0 0 0 0 0 0 0 0 0 0 0 0 0 0 0 0 0 0 0 0 0 0 0 0 0 0 0 0 0 0 0 0 0 0 0 0 0 0 0 0 0 0 0 0 0 0 0 0 0 0 0 0 0 0 0 0 0 0 0 0 0 0 0 0 0 0 0 0 0 0 0 0 0 0 0 0 0 0 0 0 0 0 0 0 0 0 0 0 0 0 0 0 0 0 0 0 0 0 0 0 0 0 0 0 0 0 0 0 0 0 0 0 0 
0 4.31955e-12 9.07097e-12 1.47202e-11 2.1803e-11 3.0965e-11 4.30065e-11 5.89366e-11 8.0036e-11 1.07934e-10 1.44698e-10 1.92947e-10 2.55977e-10 3.37923e-10 4.43935e-10 5.80397e-10 7.5517e-10 9.77881e-10 1.26024e-09 1.61642e-09 2.06344e-09 2.62161e-09 3.31505e-09 4.17216e-09 5.2262e-09 6.51583e-09 8.0857e-09 9.98699e-09 1.2278e-08 1.50245e-08 1.83004e-08 2.21879e-08 2.67777e-08 3.2169e-08 3.84697e-08 4.57957e-08 5.42704e-08 6.40241e-08 7.51927e-08 8.79163e-08 1.02338e-07 1.186e-07 1.36845e-07 1.57209e-07 1.79825e-07 2.04811e-07 2.32277e-07 2.62314e-07 2.94995e-07 3.30373e-07 3.68473e-07 4.09297e-07 4.52817e-07 4.98973e-07 5.47675e-07 5.98803e-07 6.52202e-07 7.0769e-07 7.65054e-07 8.24054e-07 8.84428e-07 9.45893e-07 1.00815e-06 1.07088e-06 1.13378e-06 1.19652e-06 1.25877e-06 1.32024e-06 1.38061e-06 1.43961e-06 1.49698e-06 1.55246e-06 1.60586e-06 1.65699e-06 1.70569e-06 1.75185e-06 1.79537e-06 1.83619e-06 1.87429e-06 1.90967e-06 1.94235e-06 1.97239e-06 1.99985e-06 2.02484e-06 2.04746e-06 2.06782e-06 2.08607e-06 2.10233e-06 2.11675e-06 2.12947e-06 2.14064e-06 2.1504e-06 2.15887e-06 2.1662e-06 2.1725e-06 2.17789e-06 2.18248e-06 2.18637e-06 2.18964e-06 2.19239e-06 2.19468e-06 2.19658e-06 2.19815e-06 2.19944e-06 2.20049e-06 2.20135e-06 2.20204e-06 2.2026e-06 2.20305e-06 2.20341e-06 2.20369e-06 2.20391e-06 2.20409e-06 2.20422e-06 2.20433e-06 2.20441e-06 2.20447e-06 2.20452e-06 2.20456e-06 2.20459e-06 2.20461e-06 2.20462e-06 2.20463e-06 2.20464e-06 2.20465e-06 2.20465e-06 2.20465e-06 2.20465e-06 2.20465e-06 2.20465e-06 2.20465e-06 2.20465e-06 2.20464e-06 2.20463e-06 2.20462e-06 2.20461e-06 2.20459e-06 2.20456e-06 2.20452e-06 2.20447e-06 2.20441e-06 2.20433e-06 2.20422e-06 2.20409e-06 2.20391e-06 2.20369e-06 2.20341e-06 2.20305e-06 2.2026e-06 2.20204e-06 2.20135e-06 2.20049e-06 2.19944e-06 2.19815e-06 2.19658e-06 2.19468e-06 2.19239e-06 2.18964e-06 2.18637e-06 2.18248e-06 2.17789e-06 2.1725e-06 2.1662e-06 2.15887e-06 2.1504e-06 2.14064e-06 2.12947e-06 2.11675e-06 2.10233e-06 2.08607e-06 2.06782e-06 2.04746e-06 2.02484e-06 1.99985e-06 1.97239e-06 1.94235e-06 1.90967e-06 1.87429e-06 1.83619e-06 1.79537e-06 1.75185e-06 1.70569e-06 1.65699e-06 1.60586e-06 1.55246e-06 1.49698e-06 1.43961e-06 1.38061e-06 1.32024e-06 1.25877e-06 1.19652e-06 1.13378e-06 1.07088e-06 1.00815e-06 9.45893e-07 8.84428e-07 8.24054e-07 7.65054e-07 7.0769e-07 6.52202e-07 5.98803e-07 5.47675e-07 4.98973e-07 4.52817e-07 4.09297e-07 3.68473e-07 3.30373e-07 2.94995e-07 2.62314e-07 2.32277e-07 2.04811e-07 1.79825e-07 1.57209e-07 1.36845e-07 1.186e-07 1.02338e-07 8.79163e-08 7.51927e-08 6.40241e-08 5.42704e-08 4.57957e-08 3.84697e-08 3.2169e-08 2.67777e-08 2.21879e-08 1.83004e-08 1.50245e-08 1.2278e-08 9.98699e-09 8.0857e-09 6.51583e-09 5.2262e-09 4.17216e-09 3.31505e-09 2.62161e-09 2.06344e-09 1.61642e-09 1.26024e-09 9.77881e-10 7.5517e-10 5.80397e-10 4.43935e-10 3.37923e-10 2.55977e-10 1.92947e-10 1.44698e-10 1.07934e-10 8.0036e-11 5.89366e-11 4.30065e-11 3.0965e-11 2.1803e-11 1.47202e-11 9.07097e-12 4.31955e-12 0 
0 9.07097e-12 1.90486e-11 3.09112e-11 4.57834e-11 6.50205e-11 9.03026e-11 1.23748e-10 1.68044e-10 2.26611e-10 3.03789e-10 4.05072e-10 5.37381e-10 7.0939e-10 9.31909e-10 1.21833e-09 1.58516e-09 2.05258e-09 2.64519e-09 3.3927e-09 4.33082e-09 5.50218e-09 6.95737e-09 8.75598e-09 1.09678e-08 1.36739e-08 1.69679e-08 2.09573e-08 2.57643e-08 3.1527e-08 3.84003e-08 4.65565e-08 5.6186e-08 6.7497e-08 8.07155e-08 9.60848e-08 1.13864e-07 1.34325e-07 1.57755e-07 1.84446e-07 2.14698e-07 2.48812e-07 2.87084e-07 3.29802e-07 3.77241e-07 4.29653e-07 4.87264e-07 5.50268e-07 6.18819e-07 6.93023e-07 7.72939e-07 8.58567e-07 9.49848e-07 1.04666e-06 1.14881e-06 1.25604e-06 1.36804e-06 1.48442e-06 1.60474e-06 1.72849e-06 1.85511e-06 1.98403e-06 2.1146e-06 2.24618e-06 2.3781e-06 2.50968e-06 2.64025e-06 2.76917e-06 2.8958e-06 3.01954e-06 3.13986e-06 3.25624e-06 3.36824e-06 3.47547e-06 3.57763e-06 3.67443e-06 3.76572e-06 3.85134e-06 3.93126e-06 4.00546e-06 4.07401e-06 4.13702e-06 4.19463e-06 4.24704e-06 4.29448e-06 4.3372e-06 4.37547e-06 4.40958e-06 4.43984e-06 4.46653e-06 4.48996e-06 4.51042e-06 4.5282e-06 4.54357e-06 4.55679e-06 4.5681e-06 4.57773e-06 4.58588e-06 4.59276e-06 4.59852e-06 4.60333e-06 4.60732e-06 4.61061e-06 4.61332e-06 4.61553e-06 4.61733e-06 4.61878e-06 4.61995e-06 4.62089e-06 4.62164e-06 4.62223e-06 4.6227e-06 4.62307e-06 4.62335e-06 4.62357e-06 4.62375e-06 4.62388e-06 4.62398e-06 4.62406e-06 4.62411e-06 4.62416e-06 4.62419e-06 4.62421e-06 4.62423e-06 4.62424e-06 4.62425e-06 4.62426e-06 4.62426e-06 4.62426e-06 4.62426e-06 4.62425e-06 4.62424e-06 4.62423e-06 4.62421e-06 4.62419e-06 4.62416e-06 4.62411e-06 4.62406e-06 4.62398e-06 4.62388e-06 4.62375e-06 4.62357e-06 4.62335e-06 4.62307e-06 4.6227e-06 4.62223e-06 4.62164e-06 4.62089e-06 4.61995e-06 4.61878e-06 4.61733e-06 4.61553e-06 4.61332e-06 4.61061e-06 4.60732e-06 4.60333e-06 4.59852e-06 4.59276e-06 4.58588e-06 4.57773e-06 4.5681e-06 4.55679e-06 4.54357e-06 4.5282e-06 4.51042e-06 4.48996e-06 4.46653e-06 4.43984e-06 4.40958e-06 4.37547e-06 4.3372e-06 4.29448e-06 4.24704e-06 4.19463e-06 4.13702e-06 4.07401e-06 4.00546e-06 3.93126e-06 3.85134e-06 3.76572e-06 3.67443e-06 3.57763e-06 3.47547e-06 3.36824e-06 3.25624e-06 3.13986e-06 3.01954e-06 2.8958e-06 2.76917e-06 2.64025e-06 2.50968e-06 2.3781e-06 2.24618e-06 2.1146e-06 1.98403e-06 1.85511e-06 1.72849e-06 1.60474e-06 1.48442e-06 1.36804e-06 1.25604e-06 1.14881e-06 1.04666e-06 9.49848e-07 8.58567e-07 7.72939e-07 6.93023e-07 6.18819e-07 5.50268e-07 4.87264e-07 4.29653e-07 3.77241e-07 3.29802e-07 2.87084e-07 2.48812e-07 2.14698e-07 1.84446e-07 1.57755e-07 1.34325e-07 1.13864e-07 9.60848e-08 8.07155e-08 6.7497e-08 5.6186e-08 4.65565e-08 3.84003e-08 3.1527e-08 2.57643e-08 2.09573e-08 1.69679e-08 1.36739e-08 1.09678e-08 8.75598e-09 6.95737e-09 5.50218e-09 4.33082e-09 3.3927e-09 2.64519e-09 2.05258e-09 1.58516e-09 1.21833e-09 9.31909e-10 7.0939e-10 5.37381e-10 4.05072e-10 3.03789e-10 2.26611e-10 1.68044e-10 1.23748e-10 9.03026e-11 6.50205e-11 4.57834e-11 3.09112e-11 1.90486e-11 9.07097e-12 0 
0 1.47202e-11 3.09112e-11 5.01596e-11 7.429e-11 1.055e-10 1.46515e-10 2.00769e-10 2.72622e-10 3.67617e-10 4.92792e-10 6.57056e-10 8.71627e-10 1.15057e-09 1.5114e-09 1.97583e-09 2.57061e-09 3.32847e-09 4.28925e-09 5.50111e-09 7.02193e-09 8.92079e-09 1.12796e-08 1.41951e-08 1.77801e-08 2.21662e-08 2.7505e-08 3.39706e-08 4.17609e-08 5.10998e-08 6.22381e-08 7.5455e-08 9.10587e-08 1.09387e-07 1.30805e-07 1.55707e-07 1.84513e-07 2.17665e-07 2.55624e-07 2.98867e-07 3.47877e-07 4.03142e-07 4.65143e-07 5.34345e-07 6.11192e-07 6.96093e-07 7.89416e-07 8.91473e-07 1.00251e-06 1.12271e-06 1.25215e-06 1.39085e-06 1.5387e-06 1.6955e-06 1.86095e-06 2.03464e-06 2.21605e-06 2.40454e-06 2.59941e-06 2.79983e-06 3.00492e-06 3.21372e-06 3.4252e-06 3.63831e-06 3.85196e-06 4.06507e-06 4.27655e-06 4.48534e-06 4.69043e-06 4.89086e-06 5.08573e-06 5.27422e-06 5.45562e-06 5.62931e-06 5.79476e-06 5.95157e-06 6.09942e-06 6.23811e-06 6.36756e-06 6.48775e-06 6.59879e-06 6.70085e-06 6.79417e-06 6.87908e-06 6.95592e-06 7.02512e-06 7.08712e-06 7.14239e-06 7.1914e-06 7.23464e-06 7.2726e-06 7.30575e-06 7.33456e-06 7.35946e-06 7.38088e-06 7.39921e-06 7.41481e-06 7.42803e-06 7.43917e-06 7.44851e-06 7.4563e-06 7.46276e-06 7.4681e-06 7.47249e-06 7.47607e-06 7.47899e-06 7.48135e-06 7.48325e-06 7.48477e-06 7.48598e-06 7.48694e-06 7.4877e-06 7.48829e-06 7.48876e-06 7.48912e-06 7.4894e-06 7.48961e-06 7.48977e-06 7.4899e-06 7.48999e-06 7.49006e-06 7.49012e-06 7.49016e-06 7.49018e-06 7.4902e-06 7.49022e-06 7.49023e-06 7.49023e-06 7.49023e-06 7.49023e-06 7.49022e-06 7.4902e-06 7.49018e-06 7.49016e-06 7.49012e-06 7.49006e-06 7.48999e-06 7.4899e-06 7.48977e-06 7.48961e-06 7.4894e-06 7.48912e-06 7.48876e-06 7.48829e-06 7.4877e-06 7.48694e-06 7.48598e-06 7.48477e-06 7.48325e-06 7.48135e-06 7.47899e-06 7.47607e-06 7.47249e-06 7.4681e-06 7.46276e-06 7.4563e-06 7.44851e-06 7.43917e-06 7.42803e-06 7.41481e-06 7.39921e-06 7.38088e-06 7.35946e-06 7.33456e-06 7.30575e-06 7.2726e-06 7.23464e-06 7.1914e-06 7.14239e-06 7.08712e-06 7.02512e-06 6.95592e-06 6.87908e-06 6.79417e-06 6.70085e-06 6.59879e-06 6.48775e-06 6.36756e-06 6.23811e-06 6.09942e-06 5.95157e-06 5.79476e-06 5.62931e-06 5.45562e-06 5.27422e-06 5.08573e-06 4.89086e-06 4.69043e-06 4.48534e-06 4.27655e-06 4.06507e-06 3.85196e-06 3.63831e-06 3.4252e-06 3.21372e-06 3.00492e-06 2.79983e-06 2.59941e-06 2.40454e-06 2.21605e-06 2.03464e-06 1.86095e-06 1.6955e-06 1.5387e-06 1.39085e-06 1.25215e-06 1.12271e-06 1.00251e-06 8.91473e-07 7.89416e-07 6.96093e-07 6.11192e-07 5.34345e-07 4.65143e-07 4.03142e-07 3.47877e-07 2.98867e-07 2.55624e-07 2.17665e-07 1.84513e-07 1.55707e-07 1.30805e-07 1.09387e-07 9.10587e-08 7.5455e-08 6.22381e-08 5.10998e-08 4.17609e-08 3.39706e-08 2.7505e-08 2.21662e-08 1.77801e-08 1.41951e-08 1.12796e-08 8.92079e-09 7.02193e-09 5.50111e-09 4.28925e-09 3.32847e-09 2.57061e-09 1.97583e-09 1.5114e-09 1.15057e-09 8.71627e-10 6.57056e-10 4.92792e-10 3.67617e-10 2.72622e-10 2.00769e-10 1.46515e-10 1.055e-10 7.429e-11 5.01596e-11 3.09112e-11 1.47202e-11 0 
0 2.1803e-11 4.57834e-11 7.429e-11 1.10024e-10 1.56237e-10 2.16963e-10 2.97285e-10 4.03652e-10 5.44268e-10 7.29546e-10 9.72663e-10 1.29022e-09 1.70301e-09 2.23695e-09 2.92415e-09 3.80417e-09 4.92541e-09 6.34679e-09 8.13951e-09 1.03891e-08 1.31978e-08 1.66868e-08 2.09987e-08 2.63007e-08 3.2787e-08 4.0682e-08 5.02427e-08 6.17618e-08 7.557e-08 9.2038e-08 1.11579e-07 1.34647e-07 1.61742e-07 1.93404e-07 2.30215e-07 2.72795e-07 3.21798e-07 3.77904e-07 4.41818e-07 5.14254e-07 5.95932e-07 6.87562e-07 7.89832e-07 9.03398e-07 1.02886e-06 1.16677e-06 1.31758e-06 1.48166e-06 1.65927e-06 1.85054e-06 2.05548e-06 2.27394e-06 2.50563e-06 2.75009e-06 3.00672e-06 3.27474e-06 3.55324e-06 3.84115e-06 4.13728e-06 4.44029e-06 4.74877e-06 5.06122e-06 5.37608e-06 5.69175e-06 6.0066e-06 6.31906e-06 6.62754e-06 6.93055e-06 7.22667e-06 7.51459e-06 7.79309e-06 8.06111e-06 8.31774e-06 8.5622e-06 8.79389e-06 9.01235e-06 9.21728e-06 9.40856e-06 9.58617e-06 9.75025e-06 9.90106e-06 1.0039e-05 1.01644e-05 1.0278e-05 1.03803e-05 1.04719e-05 1.05536e-05 1.0626e-05 1.06899e-05 1.0746e-05 1.0795e-05 1.08376e-05 1.08744e-05 1.09061e-05 1.09332e-05 1.09562e-05 1.09758e-05 1.09923e-05 1.10061e-05 1.10176e-05 1.10271e-05 1.1035e-05 1.10415e-05 1.10468e-05 1.10511e-05 1.10546e-05 1.10574e-05 1.10597e-05 1.10615e-05 1.10629e-05 1.1064e-05 1.10649e-05 1.10656e-05 1.10661e-05 1.10665e-05 1.10669e-05 1.10671e-05 1.10673e-05 1.10674e-05 1.10675e-05 1.10676e-05 1.10677e-05 1.10677e-05 1.10677e-05 1.10678e-05 1.10678e-05 1.10678e-05 1.10678e-05 1.10678e-05 1.10678e-05 1.10677e-05 1.10677e-05 1.10677e-05 1.10676e-05 1.10675e-05 1.10674e-05 1.10673e-05 1.10671e-05 1.10669e-05 1.10665e-05 1.10661e-05 1.10656e-05 1.10649e-05 1.1064e-05 1.10629e-05 1.10615e-05 1.10597e-05 1.10574e-05 1.10546e-05 1.10511e-05 1.10468e-05 1.10415e-05 1.1035e-05 1.10271e-05 1.10176e-05 1.10061e-05 1.09923e-05 1.09758e-05 1.09562e-05 1.09332e-05 1.09061e-05 1.08744e-05 1.08376e-05 1.0795e-05 1.0746e-05 1.06899e-05 1.0626e-05 1.05536e-05 1.04719e-05 1.03803e-05 1.0278e-05 1.01644e-05 1.0039e-05 9.90106e-06 9.75025e-06 9.58617e-06 9.40856e-06 9.21728e-06 9.01235e-06 8.79389e-06 8.5622e-06 8.31774e-06 8.06111e-06 7.79309e-06 7.51459e-06 7.22667e-06 6.93055e-06 6.62754e-06 6.31906e-06 6.0066e-06 5.69175e-06 5.37608e-06 5.06122e-06 4.74877e-06 4.44029e-06 4.13728e-06 3.84115e-06 3.55324e-06 3.27474e-06 3.00672e-06 2.75009e-06 2.50563e-06 2.27394e-06 2.05548e-06 1.85054e-06 1.65927e-06 1.48166e-06 1.31758e-06 1.16677e-06 1.02886e-06 9.03398e-07 7.89832e-07 6.87562e-07 5.95932e-07 5.14254e-07 4.41818e-07 3.77904e-07 3.21798e-07 2.72795e-07 2.30215e-07 1.93404e-07 1.61742e-07 1.34647e-07 1.11579e-07 9.2038e-08 7.557e-08 6.17618e-08 5.02427e-08 4.0682e-08 3.2787e-08 2.63007e-08 2.09987e-08 1.66868e-08 1.31978e-08 1.03891e-08 8.13951e-09 6.34679e-09 4.92541e-09 3.80417e-09 2.92415e-09 2.23695e-09 1.70301e-09 1.29022e-09 9.72663e-10 7.29546e-10 5.44268e-10 4.03652e-10 2.97285e-10 2.16963e-10 1.56237e-10 1.10024e-10 7.429e-11 4.57834e-11 2.1803e-11 0 
0 3.0965e-11 6.50205e-11 1.055e-10 1.56237e-10 2.21847e-10 3.08052e-10 4.22064e-10 5.73033e-10 7.72594e-10 1.03552e-09 1.38049e-09 1.83105e-09 2.41669e-09 3.17417e-09 4.14899e-09 5.39724e-09 6.98755e-09 9.00341e-09 1.15458e-08 1.47359e-08 1.87185e-08 2.36654e-08 2.97788e-08 3.72955e-08 4.64908e-08 5.76823e-08 7.12344e-08 8.75616e-08 1.07132e-07 1.30472e-07 1.58165e-07 1.90855e-07 2.2925e-07 2.74115e-07 3.26274e-07 3.86605e-07 4.56033e-07 5.35522e-07 6.26069e-07 7.28687e-07 8.44393e-07 9.74193e-07 1.11906e-06 1.27993e-06 1.45764e-06 1.65297e-06 1.86658e-06 2.09897e-06 2.35052e-06 2.62141e-06 2.91165e-06 3.22104e-06 3.54915e-06 3.89535e-06 4.25878e-06 4.63834e-06 5.03273e-06 5.44044e-06 5.85978e-06 6.28887e-06 6.72571e-06 7.16817e-06 7.61403e-06 8.06103e-06 8.50689e-06 8.94935e-06 9.38619e-06 9.81528e-06 1.02346e-05 1.06423e-05 1.10367e-05 1.14163e-05 1.17797e-05 1.21259e-05 1.2454e-05 1.27634e-05 1.30537e-05 1.33245e-05 1.35761e-05 1.38085e-05 1.40221e-05 1.42174e-05 1.43951e-05 1.4556e-05 1.47009e-05 1.48307e-05 1.49464e-05 1.5049e-05 1.51395e-05 1.5219e-05 1.52885e-05 1.53488e-05 1.5401e-05 1.54458e-05 1.54842e-05 1.55169e-05 1.55446e-05 1.55679e-05 1.55875e-05 1.56038e-05 1.56174e-05 1.56286e-05 1.56378e-05 1.56453e-05 1.56514e-05 1.56563e-05 1.56603e-05 1.56635e-05 1.56661e-05 1.56681e-05 1.56697e-05 1.56709e-05 1.56719e-05 1.56726e-05 1.56732e-05 1.56737e-05 1.5674e-05 1.56743e-05 1.56745e-05 1.56746e-05 1.56747e-05 1.56748e-05 1.56749e-05 1.56749e-05 1.5675e-05 1.5675e-05 1.5675e-05 1.5675e-05 1.5675e-05 1.5675e-05 1.56749e-05 1.56749e-05 1.56748e-05 1.56747e-05 1.56746e-05 1.56745e-05 1.56743e-05 1.5674e-05 1.56737e-05 1.56732e-05 1.56726e-05 1.56719e-05 1.56709e-05 1.56697e-05 1.56681e-05 1.56661e-05 1.56635e-05 1.56603e-05 1.56563e-05 1.56514e-05 1.56453e-05 1.56378e-05 1.56286e-05 1.56174e-05 1.56038e-05 1.55875e-05 1.55679e-05 1.55446e-05 1.55169e-05 1.54842e-05 1.54458e-05 1.5401e-05 1.53488e-05 1.52885e-05 1.5219e-05 1.51395e-05 1.5049e-05 1.49464e-05 1.48307e-05 1.47009e-05 1.4556e-05 1.43951e-05 1.42174e-05 1.40221e-05 1.38085e-05 1.35761e-05 1.33245e-05 1.30537e-05 1.27634e-05 1.2454e-05 1.21259e-05 1.17797e-05 1.14163e-05 1.10367e-05 1.06423e-05 1.02346e-05 9.81528e-06 9.38619e-06 8.94935e-06 8.50689e-06 8.06103e-06 7.61403e-06 7.16817e-06 6.72571e-06 6.28887e-06 5.85978e-06 5.44044e-06 5.03273e-06 4.63834e-06 4.25878e-06 3.89535e-06 3.54915e-06 3.22104e-06 2.91165e-06 2.62141e-06 2.35052e-06 2.09897e-06 1.86658e-06 1.65297e-06 1.45764e-06 1.27993e-06 1.11906e-06 9.74193e-07 8.44393e-07 7.28687e-07 6.26069e-07 5.35522e-07 4.56033e-07 3.86605e-07 3.26274e-07 2.74115e-07 2.2925e-07 1.90855e-07 1.58165e-07 1.30472e-07 1.07132e-07 8.75616e-08 7.12344e-08 5.76823e-08 4.64908e-08 3.72955e-08 2.97788e-08 2.36654e-08 1.87185e-08 1.47359e-08 1.15458e-08 9.00341e-09 6.98755e-09 5.39724e-09 4.14899e-09 3.17417e-09 2.41669e-09 1.83105e-09 1.38049e-09 1.03552e-09 7.72594e-10 5.73033e-10 4.22064e-10 3.08052e-10 2.21847e-10 1.56237e-10 1.055e-10 6.50205e-11 3.0965e-11 0 
0 4.30065e-11 9.03026e-11 1.46515e-10 2.16963e-10 3.08052e-10 4.27722e-10 5.85976e-10 7.95507e-10 1.07246e-09 1.4373e-09 1.91597e-09 2.54109e-09 3.35356e-09 4.40432e-09 5.75649e-09 7.48779e-09 9.69335e-09 1.24889e-08 1.60143e-08 2.04377e-08 2.59595e-08 3.28178e-08 4.12928e-08 5.17126e-08 6.44583e-08 7.99701e-08 9.87526e-08 1.2138e-07 1.48501e-07 1.80843e-07 2.19215e-07 2.64511e-07 3.17707e-07 3.79865e-07 4.52125e-07 5.35702e-07 6.31876e-07 7.41985e-07 8.67405e-07 1.00954e-06 1.1698e-06 1.34957e-06 1.5502e-06 1.77298e-06 2.01909e-06 2.28959e-06 2.58538e-06 2.90718e-06 3.2555e-06 3.63059e-06 4.03247e-06 4.46085e-06 4.91515e-06 5.39449e-06 5.89767e-06 6.42317e-06 6.96921e-06 7.53369e-06 8.11425e-06 8.70832e-06 9.3131e-06 9.92566e-06 1.05429e-05 1.11618e-05 1.17791e-05 1.23916e-05 1.29964e-05 1.35905e-05 1.4171e-05 1.47355e-05 1.52816e-05 1.58071e-05 1.63102e-05 1.67896e-05 1.72439e-05 1.76723e-05 1.80741e-05 1.84492e-05 1.87975e-05 1.91194e-05 1.94151e-05 1.96856e-05 1.99318e-05 2.01545e-05 2.03552e-05 2.05349e-05 2.06952e-05 2.08373e-05 2.09627e-05 2.10729e-05 2.1169e-05 2.12526e-05 2.13249e-05 2.1387e-05 2.14402e-05 2.14855e-05 2.15239e-05 2.15562e-05 2.15833e-05 2.1606e-05 2.16248e-05 2.16403e-05 2.1653e-05 2.16634e-05 2.16719e-05 2.16788e-05 2.16843e-05 2.16887e-05 2.16922e-05 2.1695e-05 2.16972e-05 2.1699e-05 2.17003e-05 2.17014e-05 2.17022e-05 2.17028e-05 2.17033e-05 2.17037e-05 2.17039e-05 2.17041e-05 2.17043e-05 2.17044e-05 2.17045e-05 2.17045e-05 2.17046e-05 2.17046e-05 2.17046e-05 2.17046e-05 2.17046e-05 2.17046e-05 2.17045e-05 2.17045e-05 2.17044e-05 2.17043e-05 2.17041e-05 2.17039e-05 2.17037e-05 2.17033e-05 2.17028e-05 2.17022e-05 2.17014e-05 2.17003e-05 2.1699e-05 2.16972e-05 2.1695e-05 2.16922e-05 2.16887e-05 2.16843e-05 2.16788e-05 2.16719e-05 2.16634e-05 2.1653e-05 2.16403e-05 2.16248e-05 2.1606e-05 2.15833e-05 2.15562e-05 2.15239e-05 2.14855e-05 2.14402e-05 2.1387e-05 2.13249e-05 2.12526e-05 2.1169e-05 2.10729e-05 2.09627e-05 2.08373e-05 2.06952e-05 2.05349e-05 2.03552e-05 2.01545e-05 1.99318e-05 1.96856e-05 1.94151e-05 1.91194e-05 1.87975e-05 1.84492e-05 1.80741e-05 1.76723e-05 1.72439e-05 1.67896e-05 1.63102e-05 1.58071e-05 1.52816e-05 1.47355e-05 1.4171e-05 1.35905e-05 1.29964e-05 1.23916e-05 1.17791e-05 1.11618e-05 1.05429e-05 9.92566e-06 9.3131e-06 8.70832e-06 8.11425e-06 7.53369e-06 6.96921e-06 6.42317e-06 5.89767e-06 5.39449e-06 4.91515e-06 4.46085e-06 4.03247e-06 3.63059e-06 3.2555e-06 2.90718e-06 2.58538e-06 2.28959e-06 2.01909e-06 1.77298e-06 1.5502e-06 1.34957e-06 1.1698e-06 1.00954e-06 8.67405e-07 7.41985e-07 6.31876e-07 5.35702e-07 4.52125e-07 3.79865e-07 3.17707e-07 2.64511e-07 2.19215e-07 1.80843e-07 1.48501e-07 1.2138e-07 9.87526e-08 7.99701e-08 6.44583e-08 5.17126e-08 4.12928e-08 3.28178e-08 2.59595e-08 2.04377e-08 1.60143e-08 1.24889e-08 9.69335e-09 7.48779e-09 5.75649e-09 4.40432e-09 3.35356e-09 2.54109e-09 1.91597e-09 1.4373e-09 1.07246e-09 7.95507e-10 5.85976e-10 4.27722e-10 3.08052e-10 2.16963e-10 1.46515e-10 9.03026e-11 4.30065e-11 0 
0 5.89366e-11 1.23748e-10 2.00769e-10 2.97285e-10 4.22064e-10 5.85976e-10 8.02713e-10 1.08965e-09 1.46887e-09 1.9684e-09 2.62371e-09 3.47944e-09 4.59153e-09 6.02968e-09 7.8802e-09 1.02494e-08 1.32674e-08 1.70923e-08 2.19155e-08 2.79668e-08 3.55203e-08 4.49013e-08 5.64929e-08 7.07434e-08 8.81738e-08 1.09386e-07 1.35069e-07 1.66007e-07 2.03087e-07 2.47303e-07 2.99761e-07 3.61679e-07 4.34394e-07 5.19354e-07 6.18118e-07 7.32343e-07 8.63781e-07 1.01425e-06 1.18564e-06 1.37987e-06 1.59885e-06 1.84448e-06 2.11861e-06 2.42299e-06 2.75923e-06 3.12879e-06 3.53288e-06 3.9725e-06 4.44833e-06 4.96073e-06 5.5097e-06 6.09486e-06 6.71542e-06 7.37017e-06 8.05746e-06 8.77526e-06 9.52108e-06 1.02921e-05 1.1085e-05 1.18964e-05 1.27225e-05 1.35591e-05 1.44022e-05 1.52475e-05 1.60906e-05 1.69272e-05 1.77532e-05 1.85646e-05 1.93576e-05 2.01286e-05 2.08744e-05 2.15922e-05 2.22795e-05 2.29343e-05 2.35548e-05 2.414e-05 2.4689e-05 2.52014e-05 2.56772e-05 2.61168e-05 2.65209e-05 2.68905e-05 2.72267e-05 2.75311e-05 2.78052e-05 2.80508e-05 2.82698e-05 2.8464e-05 2.86354e-05 2.87859e-05 2.89173e-05 2.90316e-05 2.91303e-05 2.92153e-05 2.9288e-05 2.93499e-05 2.94024e-05 2.94466e-05 2.94837e-05 2.95146e-05 2.95403e-05 2.95615e-05 2.95789e-05 2.95932e-05 2.96048e-05 2.96142e-05 2.96217e-05 2.96278e-05 2.96326e-05 2.96364e-05 2.96394e-05 2.96418e-05 2.96437e-05 2.96451e-05 2.96462e-05 2.96471e-05 2.96477e-05 2.96482e-05 2.96486e-05 2.96489e-05 2.96491e-05 2.96492e-05 2.96494e-05 2.96494e-05 2.96495e-05 2.96495e-05 2.96495e-05 2.96495e-05 2.96495e-05 2.96495e-05 2.96494e-05 2.96494e-05 2.96492e-05 2.96491e-05 2.96489e-05 2.96486e-05 2.96482e-05 2.96477e-05 2.96471e-05 2.96462e-05 2.96451e-05 2.96437e-05 2.96418e-05 2.96394e-05 2.96364e-05 2.96326e-05 2.96278e-05 2.96217e-05 2.96142e-05 2.96048e-05 2.95932e-05 2.95789e-05 2.95615e-05 2.95403e-05 2.95146e-05 2.94837e-05 2.94466e-05 2.94024e-05 2.93499e-05 2.9288e-05 2.92153e-05 2.91303e-05 2.90316e-05 2.89173e-05 2.87859e-05 2.86354e-05 2.8464e-05 2.82698e-05 2.80508e-05 2.78052e-05 2.75311e-05 2.72267e-05 2.68905e-05 2.65209e-05 2.61168e-05 2.56772e-05 2.52014e-05 2.4689e-05 2.414e-05 2.35548e-05 2.29343e-05 2.22795e-05 2.15922e-05 2.08744e-05 2.01286e-05 1.93576e-05 1.85646e-05 1.77532e-05 1.69272e-05 1.60906e-05 1.52475e-05 1.44022e-05 1.35591e-05 1.27225e-05 1.18964e-05 1.1085e-05 1.02921e-05 9.52108e-06 8.77526e-06 8.05746e-06 7.37017e-06 6.71542e-06 6.09486e-06 5.5097e-06 4.96073e-06 4.44833e-06 3.9725e-06 3.53288e-06 3.12879e-06 2.75923e-06 2.42299e-06 2.11861e-06 1.84448e-06 1.59885e-06 1.37987e-06 1.18564e-06 1.01425e-06 8.63781e-07 7.32343e-07 6.18118e-07 5.19354e-07 4.34394e-07 3.61679e-07 2.99761e-07 2.47303e-07 2.03087e-07 1.66007e-07 1.35069e-07 1.09386e-07 8.81738e-08 7.07434e-08 5.64929e-08 4.49013e-08 3.55203e-08 2.79668e-08 2.19155e-08 1.70923e-08 1.32674e-08 1.02494e-08 7.8802e-09 6.02968e-09 4.59153e-09 3.47944e-09 2.62371e-09 1.9684e-09 1.46887e-09 1.08965e-09 8.02713e-10 5.85976e-10 4.22064e-10 2.97285e-10 2.00769e-10 1.23748e-10 5.89366e-11 0 
0 8.0036e-11 1.68044e-10 2.72622e-10 4.03652e-10 5.73033e-10 7.95507e-10 1.08965e-09 1.47902e-09 1.99356e-09 2.67129e-09 3.56028e-09 4.72106e-09 6.22945e-09 8.17992e-09 1.06895e-08 1.39021e-08 1.79942e-08 2.318e-08 2.97188e-08 3.79218e-08 4.81605e-08 6.08753e-08 7.65853e-08 9.58974e-08 1.19517e-07 1.4826e-07 1.83058e-07 2.24975e-07 2.7521e-07 3.35109e-07 4.06168e-07 4.90038e-07 5.88528e-07 7.03597e-07 8.37354e-07 9.92044e-07 1.17003e-06 1.3738e-06 1.60587e-06 1.86885e-06 2.16534e-06 2.4979e-06 2.86904e-06 3.28111e-06 3.7363e-06 4.23657e-06 4.78359e-06 5.37868e-06 6.02276e-06 6.71634e-06 7.45939e-06 8.25142e-06 9.09134e-06 9.97751e-06 1.09077e-05 1.18792e-05 1.28886e-05 1.39321e-05 1.50052e-05 1.61034e-05 1.72213e-05 1.83536e-05 1.94946e-05 2.06385e-05 2.17795e-05 2.29118e-05 2.40297e-05 2.51278e-05 2.6201e-05 2.72444e-05 2.82538e-05 2.92253e-05 3.01555e-05 3.10417e-05 3.18816e-05 3.26736e-05 3.34167e-05 3.41103e-05 3.47544e-05 3.53495e-05 3.58965e-05 3.63967e-05 3.68519e-05 3.7264e-05 3.76351e-05 3.79677e-05 3.82642e-05 3.85272e-05 3.87592e-05 3.8963e-05 3.9141e-05 3.92957e-05 3.94294e-05 3.95445e-05 3.9643e-05 3.97269e-05 3.97979e-05 3.98578e-05 3.99081e-05 3.995e-05 3.99848e-05 4.00135e-05 4.00372e-05 4.00565e-05 4.00722e-05 4.00849e-05 4.00951e-05 4.01033e-05 4.01099e-05 4.01151e-05 4.01191e-05 4.01224e-05 4.01249e-05 4.01268e-05 4.01283e-05 4.01295e-05 4.01304e-05 4.0131e-05 4.01316e-05 4.01319e-05 4.01322e-05 4.01324e-05 4.01326e-05 4.01327e-05 4.01328e-05 4.01328e-05 4.01328e-05 4.01328e-05 4.01328e-05 4.01328e-05 4.01327e-05 4.01326e-05 4.01324e-05 4.01322e-05 4.01319e-05 4.01316e-05 4.0131e-05 4.01304e-05 4.01295e-05 4.01283e-05 4.01268e-05 4.01249e-05 4.01224e-05 4.01191e-05 4.01151e-05 4.01099e-05 4.01033e-05 4.00951e-05 4.00849e-05 4.00722e-05 4.00565e-05 4.00372e-05 4.00135e-05 3.99848e-05 3.995e-05 3.99081e-05 3.98578e-05 3.97979e-05 3.97269e-05 3.9643e-05 3.95445e-05 3.94294e-05 3.92957e-05 3.9141e-05 3.8963e-05 3.87592e-05 3.85272e-05 3.82642e-05 3.79677e-05 3.76351e-05 3.7264e-05 3.68519e-05 3.63967e-05 3.58965e-05 3.53495e-05 3.47544e-05 3.41103e-05 3.34167e-05 3.26736e-05 3.18816e-05 3.10417e-05 3.01555e-05 2.92253e-05 2.82538e-05 2.72444e-05 2.6201e-05 2.51278e-05 2.40297e-05 2.29118e-05 2.17795e-05 2.06385e-05 1.94946e-05 1.83536e-05 1.72213e-05 1.61034e-05 1.50052e-05 1.39321e-05 1.28886e-05 1.18792e-05 1.09077e-05 9.97751e-06 9.09134e-06 8.25142e-06 7.45939e-06 6.71634e-06 6.02276e-06 5.37868e-06 4.78359e-06 4.23657e-06 3.7363e-06 3.28111e-06 2.86904e-06 2.4979e-06 2.16534e-06 1.86885e-06 1.60587e-06 1.3738e-06 1.17003e-06 9.92044e-07 8.37354e-07 7.03597e-07 5.88528e-07 4.90038e-07 4.06168e-07 3.35109e-07 2.7521e-07 2.24975e-07 1.83058e-07 1.4826e-07 1.19517e-07 9.58974e-08 7.65853e-08 6.08753e-08 4.81605e-08 3.79218e-08 2.97188e-08 2.318e-08 1.79942e-08 1.39021e-08 1.06895e-08 8.17992e-09 6.22945e-09 4.72106e-09 3.56028e-09 2.67129e-09 1.99356e-09 1.47902e-09 1.08965e-09 7.95507e-10 5.73033e-10 4.03652e-10 2.72622e-10 1.68044e-10 8.0036e-11 0 
0 1.07934e-10 2.26611e-10 3.67617e-10 5.44268e-10 7.72594e-10 1.07246e-09 1.46887e-09 1.99356e-09 2.68687e-09 3.59997e-09 4.79757e-09 6.36118e-09 8.39286e-09 1.10198e-08 1.43993e-08 1.87254e-08 2.42352e-08 3.12171e-08 4.00199e-08 5.10624e-08 6.48441e-08 8.19576e-08 1.03101e-07 1.2909e-07 1.60875e-07 1.9955e-07 2.46371e-07 3.02766e-07 3.70349e-07 4.50927e-07 5.46513e-07 6.59326e-07 7.91796e-07 9.46557e-07 1.12644e-06 1.33447e-06 1.57383e-06 1.84782e-06 2.15988e-06 2.51347e-06 2.91211e-06 3.35923e-06 3.85819e-06 4.41216e-06 5.02409e-06 5.69659e-06 6.43192e-06 7.23183e-06 8.09759e-06 9.02985e-06 1.00286e-05 1.10931e-05 1.2222e-05 1.34131e-05 1.46633e-05 1.59689e-05 1.73255e-05 1.87279e-05 2.01701e-05 2.16459e-05 2.31483e-05 2.467e-05 2.62034e-05 2.77407e-05 2.92741e-05 3.07958e-05 3.22982e-05 3.3774e-05 3.52163e-05 3.66187e-05 3.79752e-05 3.92809e-05 4.05311e-05 4.17221e-05 4.2851e-05 4.39156e-05 4.49143e-05 4.58466e-05 4.67123e-05 4.75122e-05 4.82476e-05 4.89201e-05 4.9532e-05 5.0086e-05 5.05849e-05 5.1032e-05 5.14307e-05 5.17843e-05 5.20963e-05 5.23703e-05 5.26097e-05 5.28177e-05 5.29976e-05 5.31524e-05 5.32848e-05 5.33976e-05 5.34932e-05 5.35738e-05 5.36414e-05 5.36978e-05 5.37446e-05 5.37833e-05 5.38151e-05 5.38411e-05 5.38622e-05 5.38793e-05 5.38931e-05 5.39041e-05 5.39129e-05 5.39199e-05 5.39254e-05 5.39298e-05 5.39331e-05 5.39358e-05 5.39378e-05 5.39394e-05 5.39406e-05 5.39415e-05 5.39422e-05 5.39427e-05 5.39431e-05 5.39433e-05 5.39435e-05 5.39437e-05 5.39438e-05 5.39439e-05 5.39439e-05 5.39439e-05 5.39439e-05 5.39438e-05 5.39437e-05 5.39435e-05 5.39433e-05 5.39431e-05 5.39427e-05 5.39422e-05 5.39415e-05 5.39406e-05 5.39394e-05 5.39378e-05 5.39358e-05 5.39331e-05 5.39298e-05 5.39254e-05 5.39199e-05 5.39129e-05 5.39041e-05 5.38931e-05 5.38793e-05 5.38622e-05 5.38411e-05 5.38151e-05 5.37833e-05 5.37446e-05 5.36978e-05 5.36414e-05 5.35738e-05 5.34932e-05 5.33976e-05 5.32848e-05 5.31524e-05 5.29976e-05 5.28177e-05 5.26097e-05 5.23703e-05 5.20963e-05 5.17843e-05 5.14307e-05 5.1032e-05 5.05849e-05 5.0086e-05 4.9532e-05 4.89201e-05 4.82476e-05 4.75122e-05 4.67123e-05 4.58466e-05 4.49143e-05 4.39156e-05 4.2851e-05 4.17221e-05 4.05311e-05 3.92809e-05 3.79752e-05 3.66187e-05 3.52163e-05 3.3774e-05 3.22982e-05 3.07958e-05 2.92741e-05 2.77407e-05 2.62034e-05 2.467e-05 2.31483e-05 2.16459e-05 2.01701e-05 1.87279e-05 1.73255e-05 1.59689e-05 1.46633e-05 1.34131e-05 1.2222e-05 1.10931e-05 1.00286e-05 9.02985e-06 8.09759e-06 7.23183e-06 6.43192e-06 5.69659e-06 5.02409e-06 4.41216e-06 3.85819e-06 3.35923e-06 2.91211e-06 2.51347e-06 2.15988e-06 1.84782e-06 1.57383e-06 1.33447e-06 1.12644e-06 9.46557e-07 7.91796e-07 6.59326e-07 5.46513e-07 4.50927e-07 3.70349e-07 3.02766e-07 2.46371e-07 1.9955e-07 1.60875e-07 1.2909e-07 1.03101e-07 8.19576e-08 6.48441e-08 5.10624e-08 4.00199e-08 3.12171e-08 2.42352e-08 1.87254e-08 1.43993e-08 1.10198e-08 8.39286e-09 6.36118e-09 4.79757e-09 3.59997e-09 2.68687e-09 1.99356e-09 1.46887e-09 1.07246e-09 7.72594e-10 5.44268e-10 3.67617e-10 2.26611e-10 1.07934e-10 0 