<?xml version="1.0"?>
<VTKFile type="ImageData" version="0.1" byte_order="LittleEndian">
  <ImageData WholeExtent="0 255 0 255 0 0" Origin="0 0 0" Spacing="1 1 1">
  <Piece Extent="0 255 0 255 0 0">
    <PointData>
      <DataArray type="Float32" Name="scalar_data" format="ascii" >0 0 0 0 0 0 0 0 0 0 0 0 0 0 0 0 0 0 0 0 0 0 0 0 0 0 0 0 0 0 0 0 0 0 0 0 0 0 0 0 0 0 0 0 0 0 0 0 0 0 0 0 0 0 0 0 0 0 0 0 0 0 0 0 0 0 0 0 0 0 0 0 0 0 0 0 0 0 0 0 0 0 0 0 0 0 0 0 0 0 0 0 0 0 0 0 0 0 0 0 0 0 0 0 0 0 0 0 0 0 0 0 0 0 0 0 0 0 0 0 0 0 0 0 0 0 0 0 0 0 0 0 0 0 0 0 0 0 0 0 0 0 0 0 0 0 0 0 0 0 0 0 0 0 0 0 0 0 0 0 0 0 0 0 0 0 0 0 0 0 0 0 0 0 0 0 0 0 0 0 0 0 0 0 0 0 0 0 0 0 0 0 0 0 0 0 0 0 0 0 0 0 0 0 0 0 0 0 0 0 0 0 0 0 0 0 0 0 0 0 0 0 0 0 0 0 0 0 0 0 0 0 0 0 0 0 0 0 0 0 0 0 0 0 0 0 0 0 0 0 0 0 0 0 0 0 
0 5.35741e-15 1.17052e-14 2.01884e-14 3.22806e-14 4.99983e-14 7.61802e-14 1.14861e-13 1.7178e-13 2.55065e-13 3.76162e-13 5.51081e-13 8.02048e-13 1.1597e-12 1.66592e-12 2.37758e-12 3.37123e-12 4.74918e-12 6.64705e-12 9.24322e-12 1.27704e-11 1.75299e-11 2.39083e-11 3.23981e-11 4.36209e-11 5.83554e-11 7.75682e-11 1.02449e-10 1.3445e-10 1.75327e-10 2.27186e-10 2.92524e-10 3.74284e-10 4.75891e-10 6.01298e-10 7.55019e-10 9.42155e-10 1.16841e-09 1.44007e-09 1.76403e-09 2.1477e-09 2.59896e-09 3.12607e-09 3.73756e-09 4.44206e-09 5.24813e-09 6.16408e-09 7.19773e-09 8.35618e-09 9.64558e-09 1.10709e-08 1.26355e-08 1.43413e-08 1.61881e-08 1.8174e-08 2.02946e-08 2.25435e-08 2.49121e-08 2.73895e-08 2.99628e-08 3.26175e-08 3.53372e-08 3.81043e-08 4.09003e-08 4.37059e-08 4.65018e-08 4.92689e-08 5.19886e-08 5.46433e-08 5.72166e-08 5.9694e-08 6.20626e-08 6.43115e-08 6.64321e-08 6.8418e-08 7.02649e-08 7.19706e-08 7.35352e-08 7.49605e-08 7.62499e-08 7.74084e-08 7.8442e-08 7.9358e-08 8.01641e-08 8.08685e-08 8.148e-08 8.20071e-08 8.24584e-08 8.28421e-08 8.3166e-08 8.34377e-08 8.3664e-08 8.38511e-08 8.40048e-08 8.41302e-08 8.42318e-08 8.43136e-08 8.43789e-08 8.44308e-08 8.44717e-08 8.45037e-08 8.45286e-08 8.45478e-08 8.45625e-08 8.45737e-08 8.45822e-08 8.45886e-08 8.45933e-08 8.45969e-08 8.45995e-08 8.46014e-08 8.46027e-08 8.46037e-08 8.46044e-08 8.46049e-08 8.46053e-08 8.46056e-08 8.46057e-08 8.46059e-08 8.46059e-08 8.4606e-08 8.4606e-08 8.46061e-08 8.46061e-08 8.46061e-08 8.46061e-08 8.46061e-08 8.46061e-08 8.46061e-08 8.46061e-08 8.46061e-08 8.46061e-08 8.46061e-08 8.46061e-08 8.4606e-08 8.4606e-08 8.46059e-08 8.46059e-08 8.46057e-08 8.46056e-08 8.46053e-08 8.46049e-08 8.46044e-08 8.46037e-08 8.46027e-08 8.46014e-08 8.45995e-08 8.45969e-08 8.45933e-08 8.45886e-08 8.45822e-08 8.45737e-08 8.45625e-08 8.45478e-08 8.45286e-08 8.45037e-08 8.44717e-08 8.44308e-08 8.43789e-08 8.43136e-08 8.42318e-08 8.41302e-08 8.40048e-08 8.38511e-08 8.3664e-08 8.34377e-08 8.3166e-08 8.28421e-08 8.24584e-08 8.20071e-08 8.148e-08 8.08685e-08 8.01641e-08 7.9358e-08 7.8442e-08 7.74084e-08 7.62499e-08 7.49605e-08 7.35352e-08 7.19706e-08 7.02649e-08 6.8418e-08 6.64321e-08 6.43115e-08 6.20626e-08 5.9694e-08 5.72166e-08 5.46433e-08 5.19886e-08 4.92689e-08 4.65018e-08 4.37059e-08 4.09003e-08 3.81043e-08 3.53372e-08 3.26175e-08 2.99628e-08 2.73895e-08 2.49121e-08 2.25435e-08 2.02946e-08 1.8174e-08 1.61881e-08 1.43413e-08 1.26355e-08 1.10709e-08 9.64558e-09 8.35618e-09 7.19773e-09 6.16408e-09 5.24813e-09 4.44206e-09 3.73756e-09 3.12607e-09 2.59896e-09 2.1477e-09 1.76403e-09 1.44007e-09 1.16841e-09 9.42155e-10 7.55019e-10 6.01298e-10 4.75891e-10 3.74284e-10 2.92524e-10 2.27186e-10 1.75327e-10 1.3445e-10 1.02449e-10 7.75682e-11 5.83554e-11 4.36209e-11 3.23981e-11 2.39083e-11 1.75299e-11 1.27704e-11 9.24322e-12 6.64705e-12 4.74918e-12 3.37123e-12 2.37758e-12 1.66592e-12 1.1597e-12 8.02048e-13 5.51081e-13 3.76162e-13 2.55065e-13 1.7178e-13 1.14861e-13 7.61802e-14 4.99983e-14 3.22806e-14 2.01884e-14 1.17052e-14 5.35741e-15 0 
0 1.17052e-14 2.55729e-14 4.41033e-14 7.05132e-14 1.09204e-13 1.66372e-13 2.50822e-13 3.75074e-13 5.56863e-13 8.21157e-13 1.20288e-12 1.7505e-12 2.53083e-12 3.63522e-12 5.18762e-12 7.35497e-12 1.03603e-11 1.44992e-11 2.01604e-11 2.78512e-11 3.82279e-11 5.21332e-11 7.06398e-11 9.51023e-11 1.27217e-10 1.69088e-10 2.23309e-10 2.93042e-10 3.8211e-10 4.95097e-10 6.37445e-10 8.15558e-10 1.03689e-09 1.31006e-09 1.64488e-09 2.05246e-09 2.5452e-09 3.13683e-09 3.8423e-09 4.67775e-09 5.66034e-09 6.80805e-09 8.13942e-09 9.67323e-09 1.14281e-08 1.34222e-08 1.56724e-08 1.81942e-08 2.10009e-08 2.41034e-08 2.75091e-08 3.1222e-08 3.52418e-08 3.95641e-08 4.41797e-08 4.90743e-08 5.42294e-08 5.96212e-08 6.52219e-08 7.09995e-08 7.69185e-08 8.29406e-08 8.90255e-08 9.51315e-08 1.01216e-07 1.07239e-07 1.13158e-07 1.18935e-07 1.24536e-07 1.29928e-07 1.35083e-07 1.39977e-07 1.44593e-07 1.48915e-07 1.52935e-07 1.56648e-07 1.60054e-07 1.63156e-07 1.65963e-07 1.68485e-07 1.70735e-07 1.72729e-07 1.74484e-07 1.76018e-07 1.77349e-07 1.78497e-07 1.79479e-07 1.80315e-07 1.8102e-07 1.81612e-07 1.82105e-07 1.82512e-07 1.82847e-07 1.8312e-07 1.83341e-07 1.8352e-07 1.83662e-07 1.83775e-07 1.83864e-07 1.83934e-07 1.83988e-07 1.8403e-07 1.84062e-07 1.84086e-07 1.84105e-07 1.84119e-07 1.84129e-07 1.84137e-07 1.84143e-07 1.84147e-07 1.8415e-07 1.84152e-07 1.84153e-07 1.84154e-07 1.84155e-07 1.84156e-07 1.84156e-07 1.84156e-07 1.84157e-07 1.84157e-07 1.84157e-07 1.84157e-07 1.84157e-07 1.84157e-07 1.84157e-07 1.84157e-07 1.84157e-07 1.84157e-07 1.84157e-07 1.84157e-07 1.84157e-07 1.84157e-07 1.84157e-07 1.84157e-07 1.84157e-07 1.84157e-07 1.84156e-07 1.84156e-07 1.84156e-07 1.84155e-07 1.84154e-07 1.84153e-07 1.84152e-07 1.8415e-07 1.84147e-07 1.84143e-07 1.84137e-07 1.84129e-07 1.84119e-07 1.84105e-07 1.84086e-07 1.84062e-07 1.8403e-07 1.83988e-07 1.83934e-07 1.83864e-07 1.83775e-07 1.83662e-07 1.8352e-07 1.83341e-07 1.8312e-07 1.82847e-07 1.82512e-07 1.82105e-07 1.81612e-07 1.8102e-07 1.80315e-07 1.79479e-07 1.78497e-07 1.77349e-07 1.76018e-07 1.74484e-07 1.72729e-07 1.70735e-07 1.68485e-07 1.65963e-07 1.63156e-07 1.60054e-07 1.56648e-07 1.52935e-07 1.48915e-07 1.44593e-07 1.39977e-07 1.35083e-07 1.29928e-07 1.24536e-07 1.18935e-07 1.13158e-07 1.07239e-07 1.01216e-07 9.51315e-08 8.90255e-08 8.29406e-08 7.69185e-08 7.09995e-08 6.52219e-08 5.96212e-08 5.42294e-08 4.90743e-08 4.41797e-08 3.95641e-08 3.52418e-08 3.1222e-08 2.75091e-08 2.41034e-08 2.10009e-08 1.81942e-08 1.56724e-08 1.34222e-08 1.14281e-08 9.67323e-09 8.13942e-09 6.80805e-09 5.66034e-09 4.67775e-09 3.8423e-09 3.13683e-09 2.5452e-09 2.05246e-09 1.64488e-09 1.31006e-09 1.03689e-09 8.15558e-10 6.37445e-10 4.95097e-10 3.8211e-10 2.93042e-10 2.23309e-10 1.69088e-10 1.27217e-10 9.51023e-11 7.06398e-11 5.21332e-11 3.82279e-11 2.78512e-11 2.01604e-11 1.44992e-11 1.03603e-11 7.35497e-12 5.18762e-12 3.63522e-12 2.53083e-12 1.7505e-12 1.20288e-12 8.21157e-13 5.56863e-13 3.75074e-13 2.50822e-13 1.66372e-13 1.09204e-13 7.05132e-14 4.41033e-14 2.55729e-14 1.17052e-14 0 
0 2.01884e-14 4.41033e-14 7.60522e-14 1.21577e-13 1.88258e-13 2.86764e-13 4.32253e-13 6.46276e-13 9.59353e-13 1.41445e-12 2.07164e-12 3.01431e-12 4.35736e-12 6.25786e-12 8.92896e-12 1.26576e-11 1.78271e-11 2.49456e-11 3.4681e-11 4.79048e-11 6.57448e-11 8.96481e-11 1.21457e-10 1.63498e-10 2.18683e-10 2.90628e-10 3.8378e-10 5.03568e-10 6.56556e-10 8.50608e-10 1.09506e-09 1.40091e-09 1.78094e-09 2.24992e-09 2.8247e-09 3.52432e-09 4.37008e-09 5.38546e-09 6.59615e-09 8.0298e-09 9.71584e-09 1.16851e-08 1.39693e-08 1.66006e-08 1.96111e-08 2.30317e-08 2.68914e-08 3.12169e-08 3.60309e-08 4.13518e-08 4.71926e-08 5.35599e-08 6.04535e-08 6.78655e-08 7.57801e-08 8.41733e-08 9.30126e-08 1.02258e-07 1.11861e-07 1.21767e-07 1.31916e-07 1.42242e-07 1.52675e-07 1.63144e-07 1.73577e-07 1.83902e-07 1.94051e-07 2.03957e-07 2.1356e-07 2.22806e-07 2.31645e-07 2.40038e-07 2.47953e-07 2.55365e-07 2.62258e-07 2.68626e-07 2.74466e-07 2.79787e-07 2.84601e-07 2.88927e-07 2.92787e-07 2.96207e-07 2.99218e-07 3.01849e-07 3.04133e-07 3.06102e-07 3.07788e-07 3.09222e-07 3.10433e-07 3.11448e-07 3.12294e-07 3.12994e-07 3.13568e-07 3.14037e-07 3.14417e-07 3.14723e-07 3.14968e-07 3.15162e-07 3.15315e-07 3.15435e-07 3.15528e-07 3.156e-07 3.15655e-07 3.15697e-07 3.15729e-07 3.15753e-07 3.1577e-07 3.15784e-07 3.15793e-07 3.158e-07 3.15806e-07 3.15809e-07 3.15812e-07 3.15814e-07 3.15815e-07 3.15816e-07 3.15817e-07 3.15817e-07 3.15818e-07 3.15818e-07 3.15818e-07 3.15818e-07 3.15818e-07 3.15818e-07 3.15818e-07 3.15818e-07 3.15818e-07 3.15818e-07 3.15818e-07 3.15818e-07 3.15818e-07 3.15818e-07 3.15818e-07 3.15818e-07 3.15818e-07 3.15818e-07 3.15817e-07 3.15817e-07 3.15816e-07 3.15815e-07 3.15814e-07 3.15812e-07 3.15809e-07 3.15806e-07 3.158e-07 3.15793e-07 3.15784e-07 3.1577e-07 3.15753e-07 3.15729e-07 3.15697e-07 3.15655e-07 3.156e-07 3.15528e-07 3.15435e-07 3.15315e-07 3.15162e-07 3.14968e-07 3.14723e-07 3.14417e-07 3.14037e-07 3.13568e-07 3.12994e-07 3.12294e-07 3.11448e-07 3.10433e-07 3.09222e-07 3.07788e-07 3.06102e-07 3.04133e-07 3.01849e-07 2.99218e-07 2.96207e-07 2.92787e-07 2.88927e-07 2.84601e-07 2.79787e-07 2.74466e-07 2.68626e-07 2.62258e-07 2.55365e-07 2.47953e-07 2.40038e-07 2.31645e-07 2.22806e-07 2.1356e-07 2.03957e-07 1.94051e-07 1.83902e-07 1.73577e-07 1.63144e-07 1.52675e-07 1.42242e-07 1.31916e-07 1.21767e-07 1.11861e-07 1.02258e-07 9.30126e-08 8.41733e-08 7.57801e-08 6.78655e-08 6.04535e-08 5.35599e-08 4.71926e-08 4.13518e-08 3.60309e-08 3.12169e-08 2.68914e-08 2.30317e-08 1.96111e-08 1.66006e-08 1.39693e-08 1.16851e-08 9.71584e-09 8.0298e-09 6.59615e-09 5.38546e-09 4.37008e-09 3.52432e-09 2.8247e-09 2.24992e-09 1.78094e-09 1.40091e-09 1.09506e-09 8.50608e-10 6.56556e-10 5.03568e-10 3.8378e-10 2.90628e-10 2.18683e-10 1.63498e-10 1.21457e-10 8.96481e-11 6.57448e-11 4.79048e-11 3.4681e-11 2.49456e-11 1.78271e-11 1.26576e-11 8.92896e-12 6.25786e-12 4.35736e-12 3.01431e-12 2.07164e-12 1.41445e-12 9.59353e-13 6.46276e-13 4.32253e-13 2.86764e-13 1.88258e-13 1.21577e-13 7.60522e-14 4.41033e-14 2.01884e-14 0 
0 3.22806e-14 7.05132e-14 1.21577e-13 1.94319e-13 3.0084e-13 4.58164e-13 6.90473e-13 1.03214e-12 1.53184e-12 2.25807e-12 3.30659e-12 4.8103e-12 6.95227e-12 9.98275e-12 1.42412e-11 2.01847e-11 2.84235e-11 3.97664e-11 5.52769e-11 7.63417e-11 1.04755e-10 1.4282e-10 1.93467e-10 2.60395e-10 3.48236e-10 4.62737e-10 6.10971e-10 8.01566e-10 1.04495e-09 1.35363e-09 1.74244e-09 2.22883e-09 2.83314e-09 3.5788e-09 4.49258e-09 5.60473e-09 6.94903e-09 8.56281e-09 1.04868e-08 1.27649e-08 1.54439e-08 1.85726e-08 2.22014e-08 2.63814e-08 3.11633e-08 3.65962e-08 4.27264e-08 4.95958e-08 5.72406e-08 6.569e-08 7.49644e-08 8.50745e-08 9.60197e-08 1.07788e-07 1.20353e-07 1.33678e-07 1.47711e-07 1.62387e-07 1.77632e-07 1.93358e-07 2.09468e-07 2.25859e-07 2.4242e-07 2.59039e-07 2.756e-07 2.91991e-07 3.08101e-07 3.23827e-07 3.39072e-07 3.53749e-07 3.67781e-07 3.81106e-07 3.93671e-07 4.05439e-07 4.16385e-07 4.26495e-07 4.35769e-07 4.44218e-07 4.51863e-07 4.58733e-07 4.64863e-07 4.70296e-07 4.75078e-07 4.79258e-07 4.82886e-07 4.86015e-07 4.88694e-07 4.90972e-07 4.92896e-07 4.9451e-07 4.95854e-07 4.96966e-07 4.9788e-07 4.98626e-07 4.9923e-07 4.99717e-07 5.00105e-07 5.00414e-07 5.00658e-07 5.00848e-07 5.00996e-07 5.01111e-07 5.01199e-07 5.01266e-07 5.01316e-07 5.01354e-07 5.01383e-07 5.01404e-07 5.01419e-07 5.01431e-07 5.01439e-07 5.01445e-07 5.01449e-07 5.01452e-07 5.01454e-07 5.01456e-07 5.01457e-07 5.01458e-07 5.01458e-07 5.01458e-07 5.01459e-07 5.01459e-07 5.01459e-07 5.01459e-07 5.01459e-07 5.01459e-07 5.01459e-07 5.01459e-07 5.01459e-07 5.01459e-07 5.01459e-07 5.01459e-07 5.01459e-07 5.01459e-07 5.01458e-07 5.01458e-07 5.01458e-07 5.01457e-07 5.01456e-07 5.01454e-07 5.01452e-07 5.01449e-07 5.01445e-07 5.01439e-07 5.01431e-07 5.01419e-07 5.01404e-07 5.01383e-07 5.01354e-07 5.01316e-07 5.01266e-07 5.01199e-07 5.01111e-07 5.00996e-07 5.00848e-07 5.00658e-07 5.00414e-07 5.00105e-07 4.99717e-07 4.9923e-07 4.98626e-07 4.9788e-07 4.96966e-07 4.95854e-07 4.9451e-07 4.92896e-07 4.90972e-07 4.88694e-07 4.86015e-07 4.82886e-07 4.79258e-07 4.75078e-07 4.70296e-07 4.64863e-07 4.58733e-07 4.51863e-07 4.44218e-07 4.35769e-07 4.26495e-07 4.16385e-07 4.05439e-07 3.93671e-07 3.81106e-07 3.67781e-07 3.53749e-07 3.39072e-07 3.23827e-07 3.08101e-07 2.91991e-07 2.756e-07 2.59039e-07 2.4242e-07 2.25859e-07 2.09468e-07 1.93358e-07 1.77632e-07 1.62387e-07 1.47711e-07 1.33678e-07 1.20353e-07 1.07788e-07 9.60197e-08 8.50745e-08 7.49644e-08 6.569e-08 5.72406e-08 4.95958e-08 4.27264e-08 3.65962e-08 3.11633e-08 2.63814e-08 2.22014e-08 1.85726e-08 1.54439e-08 1.27649e-08 1.04868e-08 8.56281e-09 6.94903e-09 5.60473e-09 4.49258e-09 3.5788e-09 2.83314e-09 2.22883e-09 1.74244e-09 1.35363e-09 1.04495e-09 8.01566e-10 6.10971e-10 4.62737e-10 3.48236e-10 2.60395e-10 1.93467e-10 1.4282e-10 1.04755e-10 7.63417e-11 5.52769e-11 3.97664e-11 2.84235e-11 2.01847e-11 1.42412e-11 9.98275e-12 6.95227e-12 4.8103e-12 3.30659e-12 2.25807e-12 1.53184e-12 1.03214e-12 6.90473e-13 4.58164e-13 3.0084e-13 1.94319e-13 1.21577e-13 7.05132e-14 3.22806e-14 0 
0 4.99983e-14 1.09204e-13 1.88258e-13 3.0084e-13 4.65656e-13 7.09013e-13 1.06828e-12 1.59654e-12 2.36896e-12 3.4913e-12 5.11137e-12 7.43427e-12 1.07424e-11 1.54219e-11 2.19963e-11 3.11703e-11 4.38847e-11 6.13863e-11 8.53139e-11 1.17804e-10 1.61621e-10 2.20312e-10 2.98389e-10 4.0155e-10 5.36922e-10 7.13354e-10 9.41731e-10 1.23533e-09 1.61019e-09 2.08555e-09 2.68424e-09 3.43308e-09 4.36333e-09 5.51105e-09 6.91738e-09 8.6288e-09 1.06972e-08 1.31801e-08 1.61399e-08 1.96441e-08 2.37644e-08 2.85761e-08 3.41564e-08 4.05839e-08 4.79363e-08 5.6289e-08 6.5713e-08 7.62727e-08 8.80238e-08 1.01011e-07 1.15265e-07 1.30803e-07 1.47624e-07 1.65708e-07 1.85017e-07 2.05492e-07 2.27055e-07 2.49606e-07 2.7303e-07 2.97192e-07 3.21945e-07 3.47128e-07 3.72574e-07 3.98107e-07 4.23553e-07 4.48736e-07 4.73489e-07 4.97651e-07 5.21075e-07 5.43626e-07 5.65189e-07 5.85664e-07 6.04973e-07 6.23057e-07 6.39878e-07 6.55416e-07 6.6967e-07 6.82657e-07 6.94408e-07 7.04968e-07 7.14392e-07 7.22745e-07 7.30097e-07 7.36525e-07 7.42105e-07 7.46916e-07 7.51037e-07 7.54541e-07 7.57501e-07 7.59984e-07 7.62052e-07 7.63764e-07 7.6517e-07 7.66318e-07 7.67248e-07 7.67997e-07 7.68595e-07 7.69071e-07 7.69446e-07 7.69739e-07 7.69968e-07 7.70144e-07 7.70279e-07 7.70383e-07 7.70461e-07 7.70519e-07 7.70563e-07 7.70596e-07 7.7062e-07 7.70637e-07 7.7065e-07 7.70659e-07 7.70666e-07 7.7067e-07 7.70674e-07 7.70676e-07 7.70678e-07 7.70679e-07 7.70679e-07 7.7068e-07 7.7068e-07 7.70681e-07 7.70681e-07 7.70681e-07 7.70681e-07 7.70681e-07 7.70681e-07 7.70681e-07 7.70681e-07 7.70681e-07 7.70681e-07 7.70681e-07 7.70681e-07 7.7068e-07 7.7068e-07 7.70679e-07 7.70679e-07 7.70678e-07 7.70676e-07 7.70674e-07 7.7067e-07 7.70666e-07 7.70659e-07 7.7065e-07 7.70637e-07 7.7062e-07 7.70596e-07 7.70563e-07 7.70519e-07 7.70461e-07 7.70383e-07 7.70279e-07 7.70144e-07 7.69968e-07 7.69739e-07 7.69446e-07 7.69071e-07 7.68595e-07 7.67997e-07 7.67248e-07 7.66318e-07 7.6517e-07 7.63764e-07 7.62052e-07 7.59984e-07 7.57501e-07 7.54541e-07 7.51037e-07 7.46916e-07 7.42105e-07 7.36525e-07 7.30097e-07 7.22745e-07 7.14392e-07 7.04968e-07 6.94408e-07 6.82657e-07 6.6967e-07 6.55416e-07 6.39878e-07 6.23057e-07 6.04973e-07 5.85664e-07 5.65189e-07 5.43626e-07 5.21075e-07 4.97651e-07 4.73489e-07 4.48736e-07 4.23553e-07 3.98107e-07 3.72574e-07 3.47128e-07 3.21945e-07 2.97192e-07 2.7303e-07 2.49606e-07 2.27055e-07 2.05492e-07 1.85017e-07 1.65708e-07 1.47624e-07 1.30803e-07 1.15265e-07 1.01011e-07 8.80238e-08 7.62727e-08 6.5713e-08 5.6289e-08 4.79363e-08 4.05839e-08 3.41564e-08 2.85761e-08 2.37644e-08 1.96441e-08 1.61399e-08 1.31801e-08 1.06972e-08 8.6288e-09 6.91738e-09 5.51105e-09 4.36333e-09 3.43308e-09 2.68424e-09 2.08555e-09 1.61019e-09 1.23533e-09 9.41731e-10 7.13354e-10 5.36922e-10 4.0155e-10 2.98389e-10 2.20312e-10 1.61621e-10 1.17804e-10 8.53139e-11 6.13863e-11 4.38847e-11 3.11703e-11 2.19963e-11 1.54219e-11 1.07424e-11 7.43427e-12 5.11137e-12 3.4913e-12 2.36896e-12 1.59654e-12 1.06828e-12 7.09013e-13 4.65656e-13 3.0084e-13 1.88258e-13 1.09204e-13 4.99983e-14 0 
0 7.61802e-14 1.66372e-13 2.86764e-13 4.58164e-13 7.09013e-13 1.0793e-12 1.62582e-12 2.42922e-12 3.60366e-12 5.30975e-12 7.77189e-12 1.13014e-11 1.63269e-11 2.3434e-11 3.3417e-11 4.73445e-11 6.66432e-11 9.3203e-11 1.29508e-10 1.78795e-10 2.45253e-10 3.34253e-10 4.52632e-10 6.09014e-10 8.14193e-10 1.08156e-09 1.42759e-09 1.87237e-09 2.44019e-09 3.16013e-09 4.0667e-09 5.2005e-09 6.6088e-09 8.34608e-09 1.04746e-08 1.30645e-08 1.61943e-08 1.99508e-08 2.44284e-08 2.97291e-08 3.59611e-08 4.32381e-08 5.16768e-08 6.13958e-08 7.25124e-08 8.51405e-08 9.93872e-08 1.1535e-07 1.33112e-07 1.52741e-07 1.74285e-07 1.97767e-07 2.23186e-07 2.50514e-07 2.79692e-07 3.1063e-07 3.43211e-07 3.77285e-07 4.12676e-07 4.49182e-07 4.8658e-07 5.24628e-07 5.63072e-07 6.01649e-07 6.40093e-07 6.78141e-07 7.15539e-07 7.52045e-07 7.87436e-07 8.2151e-07 8.54091e-07 8.85029e-07 9.14207e-07 9.41535e-07 9.66954e-07 9.90436e-07 1.01198e-06 1.03161e-06 1.04937e-06 1.06533e-06 1.07958e-06 1.09221e-06 1.10333e-06 1.11304e-06 1.12148e-06 1.12876e-06 1.13499e-06 1.14029e-06 1.14477e-06 1.14853e-06 1.15166e-06 1.15425e-06 1.15637e-06 1.15811e-06 1.15952e-06 1.16065e-06 1.16156e-06 1.16228e-06 1.16285e-06 1.16329e-06 1.16364e-06 1.16391e-06 1.16411e-06 1.16427e-06 1.16439e-06 1.16448e-06 1.16454e-06 1.16459e-06 1.16463e-06 1.16465e-06 1.16467e-06 1.16469e-06 1.1647e-06 1.1647e-06 1.16471e-06 1.16471e-06 1.16472e-06 1.16472e-06 1.16472e-06 1.16472e-06 1.16472e-06 1.16472e-06 1.16472e-06 1.16472e-06 1.16472e-06 1.16472e-06 1.16472e-06 1.16472e-06 1.16472e-06 1.16472e-06 1.16472e-06 1.16472e-06 1.16472e-06 1.16472e-06 1.16472e-06 1.16472e-06 1.16472e-06 1.16472e-06 1.16471e-06 1.16471e-06 1.1647e-06 1.1647e-06 1.16469e-06 1.16467e-06 1.16465e-06 1.16463e-06 1.16459e-06 1.16454e-06 1.16448e-06 1.16439e-06 1.16427e-06 1.16411e-06 1.16391e-06 1.16364e-06 1.16329e-06 1.16285e-06 1.16228e-06 1.16156e-06 1.16065e-06 1.15952e-06 1.15811e-06 1.15637e-06 1.15425e-06 1.15166e-06 1.14853e-06 1.14477e-06 1.14029e-06 1.13499e-06 1.12876e-06 1.12148e-06 1.11304e-06 1.10333e-06 1.09221e-06 1.07958e-06 1.06533e-06 1.04937e-06 1.03161e-06 1.01198e-06 9.90436e-07 9.66954e-07 9.41535e-07 9.14207e-07 8.85029e-07 8.54091e-07 8.2151e-07 7.87436e-07 7.52045e-07 7.15539e-07 6.78141e-07 6.40093e-07 6.01649e-07 5.63072e-07 5.24628e-07 4.8658e-07 4.49182e-07 4.12676e-07 3.77285e-07 3.43211e-07 3.1063e-07 2.79692e-07 2.50514e-07 2.23186e-07 1.97767e-07 1.74285e-07 1.52741e-07 1.33112e-07 1.1535e-07 9.93872e-08 8.51405e-08 7.25124e-08 6.13958e-08 5.16768e-08 4.32381e-08 3.59611e-08 2.97291e-08 2.44284e-08 1.99508e-08 1.61943e-08 1.30645e-08 1.04746e-08 8.34608e-09 6.6088e-09 5.2005e-09 4.0667e-09 3.16013e-09 2.44019e-09 1.87237e-09 1.42759e-09 1.08156e-09 8.14193e-10 6.09014e-10 4.52632e-10 3.34253e-10 2.45253e-10 1.78795e-10 1.29508e-10 9.3203e-11 6.66432e-11 4.73445e-11 3.3417e-11 2.3434e-11 1.63269e-11 1.13014e-11 7.77189e-12 5.30975e-12 3.60366e-12 2.42922e-12 1.62582e-12 1.0793e-12 7.09013e-13 4.58164e-13 2.86764e-13 1.66372e-13 7.61802e-14 0 
0 1.14861e-13 2.50822e-13 4.32252e-13 6.90473e-13 1.06828e-12 1.62582e-12 2.44848e-12 3.65753e-12 5.42455e-12 7.99085e-12 1.16936e-11 1.70002e-11 2.45545e-11 3.52355e-11 5.02354e-11 7.11578e-11 1.00143e-10 1.40026e-10 1.94531e-10 2.68514e-10 3.68252e-10 5.01797e-10 6.79392e-10 9.13961e-10 1.22167e-09 1.62258e-09 2.14136e-09 2.80809e-09 3.65911e-09 4.73797e-09 6.09632e-09 7.7949e-09 9.90442e-09 1.25064e-08 1.56939e-08 1.95719e-08 2.42579e-08 2.98813e-08 3.65836e-08 4.45171e-08 5.38436e-08 6.47328e-08 7.73594e-08 9.19002e-08 1.08531e-07 1.27421e-07 1.48731e-07 1.72605e-07 1.9917e-07 2.28525e-07 2.60741e-07 2.95854e-07 3.33862e-07 3.74722e-07 4.18346e-07 4.64601e-07 5.13309e-07 5.64248e-07 6.17155e-07 6.71729e-07 7.27634e-07 7.84511e-07 8.41979e-07 8.99645e-07 9.57113e-07 1.01399e-06 1.0699e-06 1.12447e-06 1.17738e-06 1.22832e-06 1.27702e-06 1.32328e-06 1.3669e-06 1.40776e-06 1.44577e-06 1.48088e-06 1.5131e-06 1.54245e-06 1.56902e-06 1.59289e-06 1.6142e-06 1.63309e-06 1.64972e-06 1.66427e-06 1.67689e-06 1.68778e-06 1.69711e-06 1.70504e-06 1.71174e-06 1.71737e-06 1.72205e-06 1.72593e-06 1.72912e-06 1.73172e-06 1.73383e-06 1.73553e-06 1.73689e-06 1.73797e-06 1.73882e-06 1.73948e-06 1.74e-06 1.7404e-06 1.74071e-06 1.74095e-06 1.74112e-06 1.74126e-06 1.74136e-06 1.74143e-06 1.74148e-06 1.74152e-06 1.74155e-06 1.74157e-06 1.74159e-06 1.7416e-06 1.74161e-06 1.74161e-06 1.74162e-06 1.74162e-06 1.74162e-06 1.74162e-06 1.74162e-06 1.74162e-06 1.74162e-06 1.74162e-06 1.74162e-06 1.74162e-06 1.74162e-06 1.74162e-06 1.74162e-06 1.74162e-06 1.74162e-06 1.74162e-06 1.74162e-06 1.74162e-06 1.74162e-06 1.74162e-06 1.74162e-06 1.74162e-06 1.74161e-06 1.74161e-06 1.7416e-06 1.74159e-06 1.74157e-06 1.74155e-06 1.74152e-06 1.74148e-06 1.74143e-06 1.74136e-06 1.74126e-06 1.74112e-06 1.74095e-06 1.74071e-06 1.7404e-06 1.74e-06 1.73948e-06 1.73882e-06 1.73797e-06 1.73689e-06 1.73553e-06 1.73383e-06 1.73172e-06 1.72912e-06 1.72593e-06 1.72205e-06 1.71737e-06 1.71174e-06 1.70504e-06 1.69711e-06 1.68778e-06 1.67689e-06 1.66427e-06 1.64972e-06 1.63309e-06 1.6142e-06 1.59289e-06 1.56902e-06 1.54245e-06 1.5131e-06 1.48088e-06 1.44577e-06 1.40776e-06 1.3669e-06 1.32328e-06 1.27702e-06 1.22832e-06 1.17738e-06 1.12447e-06 1.0699e-06 1.01399e-06 9.57113e-07 8.99645e-07 8.41979e-07 7.84511e-07 7.27634e-07 6.71729e-07 6.17155e-07 5.64248e-07 5.13309e-07 4.64601e-07 4.18346e-07 3.74722e-07 3.33862e-07 2.95854e-07 2.60741e-07 2.28525e-07 1.9917e-07 1.72605e-07 1.48731e-07 1.27421e-07 1.08531e-07 9.19002e-08 7.73594e-08 6.47328e-08 5.38436e-08 4.45171e-08 3.65836e-08 2.98813e-08 2.42579e-08 1.95719e-08 1.56939e-08 1.25064e-08 9.90442e-09 7.7949e-09 6.09632e-09 4.73797e-09 3.65911e-09 2.80809e-09 2.14136e-09 1.62258e-09 1.22167e-09 9.13961e-10 6.79392e-10 5.01797e-10 3.68252e-10 2.68514e-10 1.94531e-10 1.40026e-10 1.00143e-10 7.11578e-11 5.02354e-11 3.52355e-11 2.45545e-11 1.70002e-11 1.16936e-11 7.99085e-12 5.42455e-12 3.65753e-12 2.44848e-12 1.62582e-12 1.06828e-12 6.90473e-13 4.32252e-13 2.50822e-13 1.14861e-13 0 
0 1.7178e-13 3.75074e-13 6.46276e-13 1.03214e-12 1.59654e-12 2.42922e-12 3.65753e-12 5.46231e-12 8.09935e-12 1.19283e-11 1.74516e-11 2.53656e-11 3.6629e-11 5.25512e-11 7.49066e-11 1.06082e-10 1.49263e-10 2.08667e-10 2.89835e-10 3.99987e-10 5.48458e-10 7.47219e-10 1.01149e-09 1.36049e-09 1.81823e-09 2.41452e-09 3.18599e-09 4.17731e-09 5.44247e-09 7.0461e-09 9.06487e-09 1.15889e-08 1.47232e-08 1.85887e-08 2.33235e-08 2.90832e-08 3.60421e-08 4.43922e-08 5.43433e-08 6.61211e-08 7.99656e-08 9.61282e-08 1.14868e-07 1.36446e-07 1.61124e-07 1.89153e-07 2.20769e-07 2.56189e-07 2.95596e-07 3.3914e-07 3.86925e-07 4.39005e-07 4.95376e-07 5.55974e-07 6.20668e-07 6.89261e-07 7.6149e-07 8.37026e-07 9.15478e-07 9.96399e-07 1.07929e-06 1.16363e-06 1.24884e-06 1.33434e-06 1.41955e-06 1.50389e-06 1.58678e-06 1.6677e-06 1.74616e-06 1.82169e-06 1.89392e-06 1.96251e-06 2.02721e-06 2.08781e-06 2.14418e-06 2.19626e-06 2.24404e-06 2.28759e-06 2.32699e-06 2.36241e-06 2.39403e-06 2.42206e-06 2.44674e-06 2.46831e-06 2.48705e-06 2.50322e-06 2.51706e-06 2.52884e-06 2.53879e-06 2.54714e-06 2.5541e-06 2.55986e-06 2.56459e-06 2.56846e-06 2.57159e-06 2.57412e-06 2.57614e-06 2.57774e-06 2.579e-06 2.58e-06 2.58077e-06 2.58136e-06 2.58182e-06 2.58217e-06 2.58243e-06 2.58263e-06 2.58278e-06 2.58289e-06 2.58297e-06 2.58303e-06 2.58308e-06 2.58311e-06 2.58313e-06 2.58315e-06 2.58316e-06 2.58316e-06 2.58317e-06 2.58317e-06 2.58318e-06 2.58318e-06 2.58318e-06 2.58318e-06 2.58318e-06 2.58318e-06 2.58318e-06 2.58318e-06 2.58318e-06 2.58318e-06 2.58318e-06 2.58318e-06 2.58318e-06 2.58318e-06 2.58318e-06 2.58318e-06 2.58318e-06 2.58318e-06 2.58317e-06 2.58317e-06 2.58316e-06 2.58316e-06 2.58315e-06 2.58313e-06 2.58311e-06 2.58308e-06 2.58303e-06 2.58297e-06 2.58289e-06 2.58278e-06 2.58263e-06 2.58243e-06 2.58217e-06 2.58182e-06 2.58136e-06 2.58077e-06 2.58e-06 2.579e-06 2.57774e-06 2.57614e-06 2.57412e-06 2.57159e-06 2.56846e-06 2.56459e-06 2.55986e-06 2.5541e-06 2.54714e-06 2.53879e-06 2.52884e-06 2.51706e-06 2.50322e-06 2.48705e-06 2.46831e-06 2.44674e-06 2.42206e-06 2.39403e-06 2.36241e-06 2.32699e-06 2.28759e-06 2.24404e-06 2.19626e-06 2.14418e-06 2.08781e-06 2.02721e-06 1.96251e-06 1.89392e-06 1.82169e-06 1.74616e-06 1.6677e-06 1.58678e-06 1.50389e-06 1.41955e-06 1.33434e-06 1.24884e-06 1.16363e-06 1.07929e-06 9.96399e-07 9.15478e-07 8.37026e-07 7.6149e-07 6.89261e-07 6.20668e-07 5.55974e-07 4.95376e-07 4.39005e-07 3.86925e-07 3.3914e-07 2.95596e-07 2.56189e-07 2.20769e-07 1.89153e-07 1.61124e-07 1.36446e-07 1.14868e-07 9.61282e-08 7.99656e-08 6.61211e-08 5.43433e-08 4.43922e-08 3.60421e-08 2.90832e-08 2.33235e-08 1.85887e-08 1.47232e-08 1.15889e-08 9.06487e-09 7.0461e-09 5.44247e-09 4.17731e-09 3.18599e-09 2.41452e-09 1.81823e-09 1.36049e-09 1.01149e-09 7.47219e-10 5.48458e-10 3.99987e-10 2.89835e-10 2.08667e-10 1.49263e-10 1.06082e-10 7.49066e-11 5.25512e-11 3.6629e-11 2.53656e-11 1.74516e-11 1.19283e-11 8.09935e-12 5.46231e-12 3.65753e-12 2.42922e-12 1.59654e-12 1.03214e-12 6.46276e-13 3.75074e-13 1.7178e-13 0 
0 2.55065e-13 5.56863e-13 9.59353e-13 1.53184e-12 2.36896e-12 3.60366e-12 5.42455e-12 8.09935e-12 1.20067e-11 1.76788e-11 2.58589e-11 3.75772e-11 5.42513e-11 7.7817e-11 1.10897e-10 1.5702e-10 2.20891e-10 3.08741e-10 4.28753e-10 5.9159e-10 8.11033e-10 1.10475e-09 1.49522e-09 2.01077e-09 2.68685e-09 3.56741e-09 4.7065e-09 6.16998e-09 8.03744e-09 1.04041e-08 1.33831e-08 1.71072e-08 2.17311e-08 2.74329e-08 3.44159e-08 4.29098e-08 5.31708e-08 6.54818e-08 8.01516e-08 9.75125e-08 1.17918e-07 1.41737e-07 1.69352e-07 2.01148e-07 2.37508e-07 2.78801e-07 3.25377e-07 3.77551e-07 4.35595e-07 4.99729e-07 5.70106e-07 6.46803e-07 7.29816e-07 8.19049e-07 9.1431e-07 1.01531e-06 1.12166e-06 1.23288e-06 1.34838e-06 1.46752e-06 1.58956e-06 1.71373e-06 1.83918e-06 1.96506e-06 2.09051e-06 2.21467e-06 2.33671e-06 2.45585e-06 2.57136e-06 2.68257e-06 2.78892e-06 2.88992e-06 2.98519e-06 3.07442e-06 3.15743e-06 3.23413e-06 3.30451e-06 3.36864e-06 3.42668e-06 3.47886e-06 3.52543e-06 3.56673e-06 3.60309e-06 3.63488e-06 3.6625e-06 3.68632e-06 3.70672e-06 3.72408e-06 3.73875e-06 3.75106e-06 3.76133e-06 3.76982e-06 3.7768e-06 3.7825e-06 3.78713e-06 3.79085e-06 3.79383e-06 3.7962e-06 3.79807e-06 3.79953e-06 3.80067e-06 3.80155e-06 3.80222e-06 3.80274e-06 3.80313e-06 3.80342e-06 3.80364e-06 3.80381e-06 3.80393e-06 3.80401e-06 3.80408e-06 3.80412e-06 3.80416e-06 3.80418e-06 3.8042e-06 3.80421e-06 3.80422e-06 3.80422e-06 3.80423e-06 3.80423e-06 3.80423e-06 3.80423e-06 3.80423e-06 3.80423e-06 3.80423e-06 3.80423e-06 3.80423e-06 3.80423e-06 3.80423e-06 3.80423e-06 3.80423e-06 3.80423e-06 3.80423e-06 3.80423e-06 3.80423e-06 3.80423e-06 3.80422e-06 3.80422e-06 3.80421e-06 3.8042e-06 3.80418e-06 3.80416e-06 3.80412e-06 3.80408e-06 3.80401e-06 3.80393e-06 3.80381e-06 3.80364e-06 3.80342e-06 3.80313e-06 3.80274e-06 3.80222e-06 3.80155e-06 3.80067e-06 3.79953e-06 3.79807e-06 3.7962e-06 3.79383e-06 3.79085e-06 3.78713e-06 3.7825e-06 3.7768e-06 3.76982e-06 3.76133e-06 3.75106e-06 3.73875e-06 3.72408e-06 3.70672e-06 3.68632e-06 3.6625e-06 3.63488e-06 3.60309e-06 3.56673e-06 3.52543e-06 3.47886e-06 3.42668e-06 3.36864e-06 3.30451e-06 3.23413e-06 3.15743e-06 3.07442e-06 2.98519e-06 2.88992e-06 2.78892e-06 2.68257e-06 2.57136e-06 2.45585e-06 2.33671e-06 2.21467e-06 2.09051e-06 1.96506e-06 1.83918e-06 1.71373e-06 1.58956e-06 1.46752e-06 1.34838e-06 1.23288e-06 1.12166e-06 1.01531e-06 9.1431e-07 8.19049e-07 7.29816e-07 6.46803e-07 5.70106e-07 4.99729e-07 4.35595e-07 3.77551e-07 3.25377e-07 2.78801e-07 2.37508e-07 2.01148e-07 1.69352e-07 1.41737e-07 1.17918e-07 9.75125e-08 8.01516e-08 6.54818e-08 5.31708e-08 4.29098e-08 3.44159e-08 2.74329e-08 2.17311e-08 1.71072e-08 1.33831e-08 1.04041e-08 8.03744e-09 6.16998e-09 4.7065e-09 3.56741e-09 2.68685e-09 2.01077e-09 1.49522e-09 1.10475e-09 8.11033e-10 5.9159e-10 4.28753e-10 3.08741e-10 2.20891e-10 1.5702e-10 1.10897e-10 7.7817e-11 5.42513e-11 3.75772e-11 2.58589e-11 1.76788e-11 1.20067e-11 8.09935e-12 5.42455e-12 3.60366e-12 2.36896e-12 1.53184e-12 9.59353e-13 5.56863e-13 2.55065e-13 0 