<?xml version="1.0"?>
<VTKFile type="ImageData" version="0.1" byte_order="LittleEndian">
  <ImageData WholeExtent="0 255 0 255 0 0" Origin="0 0 0" Spacing="1 1 1">
  <Piece Extent="0 255 0 255 0 0">
    <PointData>
      <DataArray type="Float32" Name="scalar_data" format="ascii" >0 0 0 0 0 0 0 0 0 0 0 0 0 0 0 0 0 0 0 0 0 0 0 0 0 0 0 0 0 0 0 0 0 0 0 0 0 0 0 0 0 0 0 0 0 0 0 0 0 0 0 0 0 0 0 0 0 0 0 0 0 0 0 0 0 0 0 0 0 0 0 0 0 0 0 0 0 0 0 0 0 0 0 0 0 0 0 0 0 0 0 0 0 0 0 0 0 0 0 0 0 0 0 0 0 0 0 0 0 0 0 0 0 0 0 0 0 0 0 0 0 0 0 0 0 0 0 0 0 0 0 0 0 0 0 0 0 0 0 0 0 0 0 0 0 0 0 0 0 0 0 0 0 0 0 0 0 0 0 0 0 0 0 0 0 0 0 0 0 0 0 0 0 0 0 0 0 0 0 0 0 0 0 0 0 0 0 0 0 0 0 0 0 0 0 0 0 0 0 0 0 0 0 0 0 0 0 0 0 0 0 0 0 0 0 0 0 0 0 0 0 0 0 0 0 0 0 0 0 0 0 0 0 0 0 0 0 0 0 0 0 0 0 0 0 0 0 0 0 0 0 0 0 0 0 0 
0 2.61136e-18 6.04598e-18 1.13555e-17 2.01025e-17 3.47621e-17 5.93293e-17 1.00258e-16 1.67912e-16 2.78803e-16 4.58992e-16 7.49238e-16 1.21268e-15 1.94621e-15 3.09706e-15 4.88683e-15 7.64585e-15 1.18617e-14 1.8247e-14 2.78334e-14 4.20989e-14 6.31406e-14 9.39043e-14 1.38485e-13 2.0252e-13 2.93687e-13 4.22336e-13 6.02273e-13 8.51721e-13 1.19448e-12 1.66127e-12 2.29136e-12 3.13435e-12 4.25216e-12 5.72125e-12 7.63488e-12 1.01054e-11 1.32667e-11 1.72757e-11 2.23148e-11 2.85921e-11 3.63424e-11 4.58262e-11 5.73278e-11 7.11523e-11 8.76207e-11 1.07064e-10 1.29814e-10 1.56197e-10 1.86518e-10 2.21057e-10 2.60046e-10 3.03668e-10 3.52036e-10 4.05187e-10 4.63073e-10 5.25552e-10 5.92386e-10 6.63238e-10 7.3768e-10 8.15193e-10 8.95182e-10 9.76988e-10 1.0599e-09 1.14319e-09 1.22611e-09 1.30792e-09 1.3879e-09 1.46542e-09 1.53986e-09 1.61071e-09 1.67754e-09 1.74002e-09 1.79791e-09 1.85106e-09 1.89943e-09 1.94305e-09 1.98204e-09 2.01658e-09 2.0469e-09 2.07328e-09 2.09603e-09 2.11548e-09 2.13194e-09 2.14577e-09 2.15727e-09 2.16675e-09 2.1745e-09 2.18078e-09 2.18582e-09 2.18983e-09 2.19299e-09 2.19546e-09 2.19738e-09 2.19884e-09 2.19996e-09 2.20081e-09 2.20144e-09 2.2019e-09 2.20225e-09 2.20249e-09 2.20267e-09 2.2028e-09 2.20289e-09 2.20296e-09 2.203e-09 2.20303e-09 2.20305e-09 2.20307e-09 2.20308e-09 2.20309e-09 2.20309e-09 2.20309e-09 2.20309e-09 2.2031e-09 2.2031e-09 2.2031e-09 2.2031e-09 2.2031e-09 2.2031e-09 2.2031e-09 2.2031e-09 2.2031e-09 2.2031e-09 2.2031e-09 2.2031e-09 2.2031e-09 2.2031e-09 2.2031e-09 2.2031e-09 2.2031e-09 2.2031e-09 2.2031e-09 2.2031e-09 2.2031e-09 2.2031e-09 2.2031e-09 2.2031e-09 2.2031e-09 2.2031e-09 2.2031e-09 2.2031e-09 2.20309e-09 2.20309e-09 2.20309e-09 2.20309e-09 2.20308e-09 2.20307e-09 2.20305e-09 2.20303e-09 2.203e-09 2.20296e-09 2.20289e-09 2.2028e-09 2.20267e-09 2.20249e-09 2.20225e-09 2.2019e-09 2.20144e-09 2.20081e-09 2.19996e-09 2.19884e-09 2.19738e-09 2.19546e-09 2.19299e-09 2.18983e-09 2.18582e-09 2.18078e-09 2.1745e-09 2.16675e-09 2.15727e-09 2.14577e-09 2.13194e-09 2.11548e-09 2.09603e-09 2.07328e-09 2.0469e-09 2.01658e-09 1.98204e-09 1.94305e-09 1.89943e-09 1.85106e-09 1.79791e-09 1.74002e-09 1.67754e-09 1.61071e-09 1.53986e-09 1.46542e-09 1.3879e-09 1.30792e-09 1.22611e-09 1.14319e-09 1.0599e-09 9.76988e-10 8.95182e-10 8.15193e-10 7.3768e-10 6.63238e-10 5.92386e-10 5.25552e-10 4.63073e-10 4.05187e-10 3.52036e-10 3.03668e-10 2.60046e-10 2.21057e-10 1.86518e-10 1.56197e-10 1.29814e-10 1.07064e-10 8.76207e-11 7.11523e-11 5.73278e-11 4.58262e-11 3.63424e-11 2.85921e-11 2.23148e-11 1.72757e-11 1.32667e-11 1.01054e-11 7.63488e-12 5.72125e-12 4.25216e-12 3.13435e-12 2.29136e-12 1.66127e-12 1.19448e-12 8.51721e-13 6.02273e-13 4.22336e-13 2.93687e-13 2.0252e-13 1.38485e-13 9.39043e-14 6.31406e-14 4.20989e-14 2.78334e-14 1.8247e-14 1.18617e-14 7.64585e-15 4.88683e-15 3.09706e-15 1.94621e-15 1.21268e-15 7.49238e-16 4.58992e-16 2.78803e-16 1.67912e-16 1.00258e-16 5.93293e-17 3.47621e-17 2.01025e-17 1.13555e-17 6.04598e-18 2.61136e-18 0 
0 6.04598e-18 1.39957e-17 2.62804e-17 4.65112e-17 8.04057e-17 1.3719e-16 2.31763e-16 3.88045e-16 6.4413e-16 1.06013e-15 1.73004e-15 2.79942e-15 4.49155e-15 7.14568e-15 1.12723e-14 1.76321e-14 2.73476e-14 4.20593e-14 6.41409e-14 9.69932e-14 1.4544e-13 2.16255e-13 3.18855e-13 4.66197e-13 6.75925e-13 9.71822e-13 1.38561e-12 1.95913e-12 2.74704e-12 3.8199e-12 5.26784e-12 7.20468e-12 9.77255e-12 1.31469e-11 1.75416e-11 2.32145e-11 3.04723e-11 3.96754e-11 5.12414e-11 6.56479e-11 8.34328e-11 1.05193e-10 1.3158e-10 1.63293e-10 2.01068e-10 2.45661e-10 2.97835e-10 3.58334e-10 4.27861e-10 5.07051e-10 5.9644e-10 6.96442e-10 8.07319e-10 9.29156e-10 1.06184e-09 1.20504e-09 1.35822e-09 1.52061e-09 1.69121e-09 1.86886e-09 2.05217e-09 2.23964e-09 2.42966e-09 2.62053e-09 2.81055e-09 2.99802e-09 3.18134e-09 3.35898e-09 3.52958e-09 3.69197e-09 3.84515e-09 3.98835e-09 4.12104e-09 4.24287e-09 4.35375e-09 4.45375e-09 4.54314e-09 4.62233e-09 4.69186e-09 4.75236e-09 4.80453e-09 4.84912e-09 4.8869e-09 4.91861e-09 4.945e-09 4.96676e-09 4.98454e-09 4.99895e-09 5.01052e-09 5.01972e-09 5.02698e-09 5.03265e-09 5.03705e-09 5.04042e-09 5.04299e-09 5.04492e-09 5.04637e-09 5.04745e-09 5.04823e-09 5.04881e-09 5.04922e-09 5.04952e-09 5.04973e-09 5.04987e-09 5.04998e-09 5.05005e-09 5.0501e-09 5.05013e-09 5.05015e-09 5.05017e-09 5.05017e-09 5.05018e-09 5.05019e-09 5.05019e-09 5.05019e-09 5.05019e-09 5.05019e-09 5.05019e-09 5.05019e-09 5.05019e-09 5.05019e-09 5.05019e-09 5.05019e-09 5.05019e-09 5.05019e-09 5.05019e-09 5.05019e-09 5.05019e-09 5.05019e-09 5.05019e-09 5.05019e-09 5.05019e-09 5.05019e-09 5.05019e-09 5.05019e-09 5.05019e-09 5.05019e-09 5.05019e-09 5.05019e-09 5.05019e-09 5.05019e-09 5.05019e-09 5.05018e-09 5.05017e-09 5.05017e-09 5.05015e-09 5.05013e-09 5.0501e-09 5.05005e-09 5.04998e-09 5.04987e-09 5.04973e-09 5.04952e-09 5.04922e-09 5.04881e-09 5.04823e-09 5.04745e-09 5.04637e-09 5.04492e-09 5.04299e-09 5.04042e-09 5.03705e-09 5.03265e-09 5.02698e-09 5.01972e-09 5.01052e-09 4.99895e-09 4.98454e-09 4.96676e-09 4.945e-09 4.91861e-09 4.8869e-09 4.84912e-09 4.80453e-09 4.75236e-09 4.69186e-09 4.62233e-09 4.54314e-09 4.45375e-09 4.35375e-09 4.24287e-09 4.12104e-09 3.98835e-09 3.84515e-09 3.69197e-09 3.52958e-09 3.35898e-09 3.18134e-09 2.99802e-09 2.81055e-09 2.62053e-09 2.42966e-09 2.23964e-09 2.05217e-09 1.86886e-09 1.69121e-09 1.52061e-09 1.35822e-09 1.20504e-09 1.06184e-09 9.29156e-10 8.07319e-10 6.96442e-10 5.9644e-10 5.07051e-10 4.27861e-10 3.58334e-10 2.97835e-10 2.45661e-10 2.01068e-10 1.63293e-10 1.3158e-10 1.05193e-10 8.34328e-11 6.56479e-11 5.12414e-11 3.96754e-11 3.04723e-11 2.32145e-11 1.75416e-11 1.31469e-11 9.77255e-12 7.20468e-12 5.26784e-12 3.8199e-12 2.74704e-12 1.95913e-12 1.38561e-12 9.71822e-13 6.75925e-13 4.66197e-13 3.18855e-13 2.16255e-13 1.4544e-13 9.69932e-14 6.41409e-14 4.20593e-14 2.73476e-14 1.76321e-14 1.12723e-14 7.14568e-15 4.49155e-15 2.79942e-15 1.73004e-15 1.06013e-15 6.4413e-16 3.88045e-16 2.31763e-16 1.3719e-16 8.04057e-17 4.65112e-17 2.62804e-17 1.39957e-17 6.04598e-18 0 
0 1.13555e-17 2.62804e-17 4.93314e-17 8.72725e-17 1.50808e-16 2.57204e-16 4.34326e-16 7.269e-16 1.20611e-15 1.98427e-15 3.23688e-15 5.23565e-15 8.3972e-15 1.33543e-14 2.10587e-14 3.29282e-14 5.10543e-14 7.84925e-14 1.19662e-13 1.80893e-13 2.7116e-13 4.03064e-13 5.94113e-13 8.68394e-13 1.2587e-12 1.8092e-12 2.57882e-12 3.64527e-12 5.10997e-12 7.10389e-12 9.79423e-12 1.33921e-11 1.81611e-11 2.44265e-11 3.25847e-11 4.31135e-11 5.65812e-11 7.36552e-11 9.51092e-11 1.21827e-10 1.54805e-10 1.95147e-10 2.4406e-10 3.02837e-10 3.72838e-10 4.55464e-10 5.52124e-10 6.64194e-10 7.92973e-10 9.39632e-10 1.10517e-09 1.29034e-09 1.49563e-09 1.72119e-09 1.96682e-09 2.23191e-09 2.51545e-09 2.81602e-09 3.13178e-09 3.46056e-09 3.79983e-09 4.14679e-09 4.49846e-09 4.85171e-09 5.20337e-09 5.55033e-09 5.8896e-09 6.21838e-09 6.53415e-09 6.83472e-09 7.11826e-09 7.38335e-09 7.62897e-09 7.85454e-09 8.05983e-09 8.245e-09 8.41053e-09 8.55719e-09 8.68597e-09 8.79804e-09 8.8947e-09 8.97733e-09 9.04733e-09 9.10611e-09 9.15502e-09 9.19536e-09 9.22834e-09 9.25506e-09 9.27651e-09 9.29358e-09 9.30705e-09 9.31758e-09 9.32574e-09 9.33201e-09 9.33677e-09 9.34037e-09 9.34306e-09 9.34506e-09 9.34652e-09 9.34759e-09 9.34836e-09 9.34891e-09 9.3493e-09 9.34957e-09 9.34976e-09 9.34989e-09 9.34998e-09 9.35005e-09 9.35009e-09 9.35012e-09 9.35013e-09 9.35014e-09 9.35015e-09 9.35016e-09 9.35016e-09 9.35016e-09 9.35017e-09 9.35017e-09 9.35017e-09 9.35017e-09 9.35017e-09 9.35017e-09 9.35017e-09 9.35017e-09 9.35017e-09 9.35017e-09 9.35017e-09 9.35017e-09 9.35017e-09 9.35017e-09 9.35017e-09 9.35017e-09 9.35017e-09 9.35017e-09 9.35017e-09 9.35017e-09 9.35017e-09 9.35017e-09 9.35016e-09 9.35016e-09 9.35016e-09 9.35015e-09 9.35014e-09 9.35013e-09 9.35012e-09 9.35009e-09 9.35005e-09 9.34998e-09 9.34989e-09 9.34976e-09 9.34957e-09 9.3493e-09 9.34891e-09 9.34836e-09 9.34759e-09 9.34652e-09 9.34506e-09 9.34306e-09 9.34037e-09 9.33677e-09 9.33201e-09 9.32574e-09 9.31758e-09 9.30705e-09 9.29358e-09 9.27651e-09 9.25506e-09 9.22834e-09 9.19536e-09 9.15502e-09 9.10611e-09 9.04733e-09 8.97733e-09 8.8947e-09 8.79804e-09 8.68597e-09 8.55719e-09 8.41053e-09 8.245e-09 8.05983e-09 7.85454e-09 7.62897e-09 7.38335e-09 7.11826e-09 6.83472e-09 6.53415e-09 6.21838e-09 5.8896e-09 5.55033e-09 5.20337e-09 4.85171e-09 4.49846e-09 4.14679e-09 3.79983e-09 3.46056e-09 3.13178e-09 2.81602e-09 2.51545e-09 2.23191e-09 1.96682e-09 1.72119e-09 1.49563e-09 1.29034e-09 1.10517e-09 9.39632e-10 7.92973e-10 6.64194e-10 5.52124e-10 4.55464e-10 3.72838e-10 3.02837e-10 2.4406e-10 1.95147e-10 1.54805e-10 1.21827e-10 9.51092e-11 7.36552e-11 5.65812e-11 4.31135e-11 3.25847e-11 2.44265e-11 1.81611e-11 1.33921e-11 9.79423e-12 7.10389e-12 5.10997e-12 3.64527e-12 2.57882e-12 1.8092e-12 1.2587e-12 8.68394e-13 5.94113e-13 4.03064e-13 2.7116e-13 1.80893e-13 1.19662e-13 7.84925e-14 5.10543e-14 3.29282e-14 2.10587e-14 1.33543e-14 8.3972e-15 5.23565e-15 3.23688e-15 1.98427e-15 1.20611e-15 7.269e-16 4.34326e-16 2.57204e-16 1.50808e-16 8.72725e-17 4.93314e-17 2.62804e-17 1.13555e-17 0 
0 2.01025e-17 4.65112e-17 8.72725e-17 1.54324e-16 2.66545e-16 4.54368e-16 7.66892e-16 1.28287e-15 2.1276e-15 3.49865e-15 5.70462e-15 9.22305e-15 1.47859e-14 2.35042e-14 3.70487e-14 5.79067e-14 8.97464e-14 1.37924e-13 2.10184e-13 3.17614e-13 4.7593e-13 7.07185e-13 1.04202e-12 1.52255e-12 2.20612e-12 3.16995e-12 4.51698e-12 6.38294e-12 8.94497e-12 1.24316e-11 1.71348e-11 2.34227e-11 3.17551e-11 4.26991e-11 5.69458e-11 7.53278e-11 9.88353e-11 1.28631e-10 1.66061e-10 2.12666e-10 2.70179e-10 3.40522e-10 4.25793e-10 5.28242e-10 6.50235e-10 7.94207e-10 9.62608e-10 1.15783e-09 1.38212e-09 1.63753e-09 1.92578e-09 2.24818e-09 2.60558e-09 2.99824e-09 3.4258e-09 3.88719e-09 4.38067e-09 4.90375e-09 5.45326e-09 6.02539e-09 6.61576e-09 7.2195e-09 7.83142e-09 8.44609e-09 9.05801e-09 9.66175e-09 1.02521e-08 1.08242e-08 1.13738e-08 1.18968e-08 1.23903e-08 1.28517e-08 1.32793e-08 1.36719e-08 1.40293e-08 1.43517e-08 1.464e-08 1.48954e-08 1.51197e-08 1.53149e-08 1.54833e-08 1.56273e-08 1.57493e-08 1.58517e-08 1.5937e-08 1.60073e-08 1.60648e-08 1.61114e-08 1.61489e-08 1.61787e-08 1.62022e-08 1.62206e-08 1.62348e-08 1.62458e-08 1.62541e-08 1.62604e-08 1.62651e-08 1.62686e-08 1.62711e-08 1.6273e-08 1.62743e-08 1.62753e-08 1.6276e-08 1.62765e-08 1.62768e-08 1.6277e-08 1.62772e-08 1.62773e-08 1.62774e-08 1.62774e-08 1.62775e-08 1.62775e-08 1.62775e-08 1.62775e-08 1.62775e-08 1.62775e-08 1.62775e-08 1.62775e-08 1.62775e-08 1.62775e-08 1.62775e-08 1.62775e-08 1.62775e-08 1.62775e-08 1.62775e-08 1.62775e-08 1.62775e-08 1.62775e-08 1.62775e-08 1.62775e-08 1.62775e-08 1.62775e-08 1.62775e-08 1.62775e-08 1.62775e-08 1.62775e-08 1.62775e-08 1.62775e-08 1.62775e-08 1.62775e-08 1.62775e-08 1.62775e-08 1.62775e-08 1.62775e-08 1.62774e-08 1.62774e-08 1.62773e-08 1.62772e-08 1.6277e-08 1.62768e-08 1.62765e-08 1.6276e-08 1.62753e-08 1.62743e-08 1.6273e-08 1.62711e-08 1.62686e-08 1.62651e-08 1.62604e-08 1.62541e-08 1.62458e-08 1.62348e-08 1.62206e-08 1.62022e-08 1.61787e-08 1.61489e-08 1.61114e-08 1.60648e-08 1.60073e-08 1.5937e-08 1.58517e-08 1.57493e-08 1.56273e-08 1.54833e-08 1.53149e-08 1.51197e-08 1.48954e-08 1.464e-08 1.43517e-08 1.40293e-08 1.36719e-08 1.32793e-08 1.28517e-08 1.23903e-08 1.18968e-08 1.13738e-08 1.08242e-08 1.02521e-08 9.66175e-09 9.05801e-09 8.44609e-09 7.83142e-09 7.2195e-09 6.61576e-09 6.02539e-09 5.45326e-09 4.90375e-09 4.38067e-09 3.88719e-09 3.4258e-09 2.99824e-09 2.60558e-09 2.24818e-09 1.92578e-09 1.63753e-09 1.38212e-09 1.15783e-09 9.62608e-10 7.94207e-10 6.50235e-10 5.28242e-10 4.25793e-10 3.40522e-10 2.70179e-10 2.12666e-10 1.66061e-10 1.28631e-10 9.88353e-11 7.53278e-11 5.69458e-11 4.26991e-11 3.17551e-11 2.34227e-11 1.71348e-11 1.24316e-11 8.94497e-12 6.38294e-12 4.51698e-12 3.16995e-12 2.20612e-12 1.52255e-12 1.04202e-12 7.07185e-13 4.7593e-13 3.17614e-13 2.10184e-13 1.37924e-13 8.97464e-14 5.79067e-14 3.70487e-14 2.35042e-14 1.47859e-14 9.22305e-15 5.70462e-15 3.49865e-15 2.1276e-15 1.28287e-15 7.66892e-16 4.54368e-16 2.66545e-16 1.54324e-16 8.72725e-17 4.65112e-17 2.01025e-17 0 
0 3.47621e-17 8.04057e-17 1.50808e-16 2.66545e-16 4.60134e-16 7.83963e-16 1.3225e-15 2.21117e-15 3.66531e-15 6.02428e-15 9.81793e-15 1.58658e-14 2.54232e-14 4.03952e-14 6.36445e-14 9.94319e-14 1.54038e-13 2.36628e-13 3.60451e-13 5.44466e-13 8.15535e-13 1.21134e-12 1.7842e-12 2.60604e-12 3.77471e-12 5.42194e-12 7.72329e-12 1.09102e-11 1.52844e-11 2.12355e-11 2.92605e-11 3.99863e-11 5.41955e-11 7.2853e-11 9.71347e-11 1.28456e-10 1.68501e-10 2.19246e-10 2.82978e-10 3.62314e-10 4.60198e-10 5.79894e-10 7.24963e-10 8.99224e-10 1.10669e-09 1.3515e-09 1.63779e-09 1.96964e-09 2.35085e-09 2.78489e-09 3.27466e-09 3.82242e-09 4.42957e-09 5.09656e-09 5.82275e-09 6.60637e-09 7.44441e-09 8.33268e-09 9.26578e-09 1.02373e-08 1.12397e-08 1.22648e-08 1.33037e-08 1.43473e-08 1.53863e-08 1.64114e-08 1.74138e-08 1.83853e-08 1.93184e-08 2.02066e-08 2.10447e-08 2.18283e-08 2.25545e-08 2.32215e-08 2.38286e-08 2.43764e-08 2.48662e-08 2.53002e-08 2.56814e-08 2.60133e-08 2.62995e-08 2.65444e-08 2.67518e-08 2.69261e-08 2.70712e-08 2.71908e-08 2.72887e-08 2.73681e-08 2.74318e-08 2.74825e-08 2.75226e-08 2.75539e-08 2.75782e-08 2.75969e-08 2.76111e-08 2.76218e-08 2.76298e-08 2.76358e-08 2.76401e-08 2.76433e-08 2.76456e-08 2.76473e-08 2.76484e-08 2.76493e-08 2.76498e-08 2.76502e-08 2.76505e-08 2.76507e-08 2.76508e-08 2.76509e-08 2.76509e-08 2.7651e-08 2.7651e-08 2.7651e-08 2.7651e-08 2.7651e-08 2.7651e-08 2.7651e-08 2.7651e-08 2.7651e-08 2.76511e-08 2.76511e-08 2.76511e-08 2.76511e-08 2.76511e-08 2.76511e-08 2.76511e-08 2.76511e-08 2.76511e-08 2.76511e-08 2.76511e-08 2.76511e-08 2.76511e-08 2.76511e-08 2.7651e-08 2.7651e-08 2.7651e-08 2.7651e-08 2.7651e-08 2.7651e-08 2.7651e-08 2.7651e-08 2.7651e-08 2.76509e-08 2.76509e-08 2.76508e-08 2.76507e-08 2.76505e-08 2.76502e-08 2.76498e-08 2.76493e-08 2.76484e-08 2.76473e-08 2.76456e-08 2.76433e-08 2.76401e-08 2.76358e-08 2.76298e-08 2.76218e-08 2.76111e-08 2.75969e-08 2.75782e-08 2.75539e-08 2.75226e-08 2.74825e-08 2.74318e-08 2.73681e-08 2.72887e-08 2.71908e-08 2.70712e-08 2.69261e-08 2.67518e-08 2.65444e-08 2.62995e-08 2.60133e-08 2.56814e-08 2.53002e-08 2.48662e-08 2.43764e-08 2.38286e-08 2.32215e-08 2.25545e-08 2.18283e-08 2.10447e-08 2.02066e-08 1.93184e-08 1.83853e-08 1.74138e-08 1.64114e-08 1.53863e-08 1.43473e-08 1.33037e-08 1.22648e-08 1.12397e-08 1.02373e-08 9.26578e-09 8.33268e-09 7.44441e-09 6.60637e-09 5.82275e-09 5.09656e-09 4.42957e-09 3.82242e-09 3.27466e-09 2.78489e-09 2.35085e-09 1.96964e-09 1.63779e-09 1.3515e-09 1.10669e-09 8.99224e-10 7.24963e-10 5.79894e-10 4.60198e-10 3.62314e-10 2.82978e-10 2.19246e-10 1.68501e-10 1.28456e-10 9.71347e-11 7.2853e-11 5.41955e-11 3.99863e-11 2.92605e-11 2.12355e-11 1.52844e-11 1.09102e-11 7.72329e-12 5.42194e-12 3.77471e-12 2.60604e-12 1.7842e-12 1.21134e-12 8.15535e-13 5.44466e-13 3.60451e-13 2.36628e-13 1.54038e-13 9.94319e-14 6.36445e-14 4.03952e-14 2.54232e-14 1.58658e-14 9.81793e-15 6.02428e-15 3.66531e-15 2.21117e-15 1.3225e-15 7.83963e-16 4.60134e-16 2.66545e-16 1.50808e-16 8.04057e-17 3.47621e-17 0 
0 5.93293e-17 1.3719e-16 2.57204e-16 4.54369e-16 7.83963e-16 1.33499e-15 2.25086e-15 3.76139e-15 6.2318e-15 1.02374e-14 1.66759e-14 2.69352e-14 4.31403e-14 6.85141e-14 1.07898e-13 1.68494e-13 2.60912e-13 4.00633e-13 6.10021e-13 9.21066e-13 1.37908e-12 2.04758e-12 3.01476e-12 4.40178e-12 6.37341e-12 9.15143e-12 1.30313e-11 1.84022e-11 2.57718e-11 3.57948e-11 4.93064e-11 6.73602e-11 9.12702e-11 1.22656e-10 1.63493e-10 2.16155e-10 2.83466e-10 3.68742e-10 4.75819e-10 6.09081e-10 7.73461e-10 9.7443e-10 1.21795e-09 1.51042e-09 1.85856e-09 2.26929e-09 2.74954e-09 3.30612e-09 3.94541e-09 4.67319e-09 5.49432e-09 6.41256e-09 7.43025e-09 8.54813e-09 9.76514e-09 1.10783e-08 1.24825e-08 1.39708e-08 1.55342e-08 1.71618e-08 1.88411e-08 2.05584e-08 2.22989e-08 2.40472e-08 2.57878e-08 2.75051e-08 2.91844e-08 3.0812e-08 3.23753e-08 3.38636e-08 3.52679e-08 3.6581e-08 3.7798e-08 3.89159e-08 3.99336e-08 4.08518e-08 4.1673e-08 4.24008e-08 4.304e-08 4.35966e-08 4.40769e-08 4.44876e-08 4.48357e-08 4.51282e-08 4.53717e-08 4.55727e-08 4.57371e-08 4.58703e-08 4.59774e-08 4.60627e-08 4.613e-08 4.61827e-08 4.62235e-08 4.62549e-08 4.62788e-08 4.62969e-08 4.63104e-08 4.63204e-08 4.63278e-08 4.63331e-08 4.6337e-08 4.63398e-08 4.63418e-08 4.63431e-08 4.63441e-08 4.63448e-08 4.63452e-08 4.63456e-08 4.63458e-08 4.63459e-08 4.6346e-08 4.63461e-08 4.63461e-08 4.63461e-08 4.63461e-08 4.63462e-08 4.63462e-08 4.63462e-08 4.63462e-08 4.63462e-08 4.63462e-08 4.63462e-08 4.63462e-08 4.63462e-08 4.63462e-08 4.63462e-08 4.63462e-08 4.63462e-08 4.63462e-08 4.63462e-08 4.63462e-08 4.63462e-08 4.63462e-08 4.63462e-08 4.63462e-08 4.63462e-08 4.63462e-08 4.63462e-08 4.63462e-08 4.63461e-08 4.63461e-08 4.63461e-08 4.63461e-08 4.6346e-08 4.63459e-08 4.63458e-08 4.63456e-08 4.63452e-08 4.63448e-08 4.63441e-08 4.63431e-08 4.63418e-08 4.63398e-08 4.6337e-08 4.63331e-08 4.63278e-08 4.63204e-08 4.63104e-08 4.62969e-08 4.62788e-08 4.62549e-08 4.62235e-08 4.61827e-08 4.613e-08 4.60627e-08 4.59774e-08 4.58703e-08 4.57371e-08 4.55727e-08 4.53717e-08 4.51282e-08 4.48357e-08 4.44876e-08 4.40769e-08 4.35966e-08 4.304e-08 4.24008e-08 4.1673e-08 4.08518e-08 3.99336e-08 3.89159e-08 3.7798e-08 3.6581e-08 3.52679e-08 3.38636e-08 3.23753e-08 3.0812e-08 2.91844e-08 2.75051e-08 2.57878e-08 2.40472e-08 2.22989e-08 2.05584e-08 1.88411e-08 1.71618e-08 1.55342e-08 1.39708e-08 1.24825e-08 1.10783e-08 9.76514e-09 8.54813e-09 7.43025e-09 6.41256e-09 5.49432e-09 4.67319e-09 3.94541e-09 3.30612e-09 2.74954e-09 2.26929e-09 1.85856e-09 1.51042e-09 1.21795e-09 9.7443e-10 7.73461e-10 6.09081e-10 4.75819e-10 3.68742e-10 2.83466e-10 2.16155e-10 1.63493e-10 1.22656e-10 9.12702e-11 6.73602e-11 4.93064e-11 3.57948e-11 2.57718e-11 1.84022e-11 1.30313e-11 9.15143e-12 6.37341e-12 4.40178e-12 3.01476e-12 2.04758e-12 1.37908e-12 9.21066e-13 6.10021e-13 4.00633e-13 2.60912e-13 1.68494e-13 1.07898e-13 6.85141e-14 4.31403e-14 2.69352e-14 1.66759e-14 1.02374e-14 6.2318e-15 3.76139e-15 2.25086e-15 1.33499e-15 7.83963e-16 4.54369e-16 2.57204e-16 1.3719e-16 5.93293e-17 0 
0 1.00258e-16 2.31763e-16 4.34326e-16 7.66892e-16 1.3225e-15 2.25086e-15 3.79308e-15 6.33529e-15 1.04908e-14 1.72254e-14 2.8045e-14 4.52768e-14 7.24824e-14 1.15061e-13 1.81118e-13 2.82709e-13 4.37583e-13 6.71626e-13 1.02222e-12 1.54281e-12 2.30906e-12 3.42704e-12 5.04388e-12 7.3617e-12 1.06553e-11 1.52942e-11 2.17708e-11 3.07335e-11 4.30275e-11 5.97425e-11 8.22683e-11 1.12358e-10 1.52195e-10 2.04475e-10 2.72477e-10 3.60149e-10 4.72181e-10 6.14077e-10 7.92208e-10 1.01385e-09 1.28719e-09 1.6213e-09 2.02607e-09 2.51212e-09 3.09057e-09 3.77289e-09 4.5706e-09 5.49493e-09 6.55648e-09 7.7648e-09 9.12795e-09 1.06521e-08 1.23412e-08 1.41964e-08 1.62159e-08 1.83947e-08 2.07246e-08 2.31938e-08 2.57874e-08 2.84874e-08 3.12731e-08 3.41219e-08 3.7009e-08 3.99091e-08 4.27963e-08 4.5645e-08 4.84307e-08 5.11307e-08 5.37243e-08 5.61935e-08 5.85234e-08 6.07022e-08 6.27217e-08 6.45769e-08 6.6266e-08 6.77902e-08 6.91533e-08 7.03616e-08 7.14232e-08 7.23475e-08 7.31452e-08 7.38276e-08 7.4406e-08 7.4892e-08 7.52968e-08 7.56309e-08 7.59043e-08 7.61259e-08 7.6304e-08 7.64459e-08 7.6558e-08 7.66456e-08 7.67136e-08 7.67659e-08 7.68058e-08 7.68359e-08 7.68584e-08 7.68751e-08 7.68874e-08 7.68963e-08 7.69028e-08 7.69075e-08 7.69108e-08 7.69131e-08 7.69147e-08 7.69158e-08 7.69166e-08 7.69171e-08 7.69175e-08 7.69177e-08 7.69178e-08 7.69179e-08 7.6918e-08 7.6918e-08 7.69181e-08 7.69181e-08 7.69181e-08 7.69181e-08 7.69181e-08 7.69181e-08 7.69181e-08 7.69181e-08 7.69181e-08 7.69181e-08 7.69181e-08 7.69181e-08 7.69181e-08 7.69181e-08 7.69181e-08 7.69181e-08 7.69181e-08 7.69181e-08 7.69181e-08 7.69181e-08 7.69181e-08 7.69181e-08 7.69181e-08 7.69181e-08 7.69181e-08 7.69181e-08 7.6918e-08 7.6918e-08 7.69179e-08 7.69178e-08 7.69177e-08 7.69175e-08 7.69171e-08 7.69166e-08 7.69158e-08 7.69147e-08 7.69131e-08 7.69108e-08 7.69075e-08 7.69028e-08 7.68963e-08 7.68874e-08 7.68751e-08 7.68584e-08 7.68359e-08 7.68058e-08 7.67659e-08 7.67136e-08 7.66456e-08 7.6558e-08 7.64459e-08 7.6304e-08 7.61259e-08 7.59043e-08 7.56309e-08 7.52968e-08 7.4892e-08 7.4406e-08 7.38276e-08 7.31452e-08 7.23475e-08 7.14232e-08 7.03616e-08 6.91533e-08 6.77902e-08 6.6266e-08 6.45769e-08 6.27217e-08 6.07022e-08 5.85234e-08 5.61935e-08 5.37243e-08 5.11307e-08 4.84307e-08 4.5645e-08 4.27963e-08 3.99091e-08 3.7009e-08 3.41219e-08 3.12731e-08 2.84874e-08 2.57874e-08 2.31938e-08 2.07246e-08 1.83947e-08 1.62159e-08 1.41964e-08 1.23412e-08 1.06521e-08 9.12795e-09 7.7648e-09 6.55648e-09 5.49493e-09 4.5706e-09 3.77289e-09 3.09057e-09 2.51212e-09 2.02607e-09 1.6213e-09 1.28719e-09 1.01385e-09 7.92208e-10 6.14077e-10 4.72181e-10 3.60149e-10 2.72477e-10 2.04475e-10 1.52195e-10 1.12358e-10 8.22683e-11 5.97425e-11 4.30275e-11 3.07335e-11 2.17708e-11 1.52942e-11 1.06553e-11 7.3617e-12 5.04388e-12 3.42704e-12 2.30906e-12 1.54281e-12 1.02222e-12 6.71626e-13 4.37583e-13 2.82709e-13 1.81118e-13 1.15061e-13 7.24824e-14 4.52768e-14 2.8045e-14 1.72254e-14 1.04908e-14 6.33529e-15 3.79308e-15 2.25086e-15 1.3225e-15 7.66892e-16 4.34326e-16 2.31763e-16 1.00258e-16 0 
0 1.67912e-16 3.88045e-16 7.269e-16 1.28287e-15 2.21117e-15 3.76139e-15 6.33529e-15 1.05759e-14 1.75042e-14 2.87267e-14 4.67479e-14 7.54354e-14 1.20706e-13 1.91525e-13 3.01345e-13 4.70164e-13 7.27416e-13 1.11601e-12 1.69787e-12 2.56151e-12 3.8322e-12 5.68543e-12 8.36461e-12 1.22039e-11 1.76575e-11 2.53362e-11 3.60529e-11 5.08784e-11 7.12077e-11 9.88389e-11 1.36064e-10 1.85774e-10 2.51571e-10 3.37893e-10 4.50144e-10 5.94826e-10 7.79664e-10 1.01372e-09 1.30747e-09 1.67289e-09 2.12345e-09 2.67407e-09 3.34102e-09 4.14171e-09 5.09448e-09 6.21813e-09 7.5316e-09 9.05334e-09 1.08007e-08 1.27894e-08 1.50327e-08 1.75407e-08 2.03197e-08 2.33717e-08 2.66938e-08 3.02777e-08 3.41097e-08 3.81707e-08 4.2436e-08 4.68762e-08 5.14572e-08 5.61417e-08 6.08893e-08 6.56581e-08 7.04057e-08 7.50902e-08 7.96713e-08 8.41114e-08 8.83767e-08 9.24377e-08 9.62697e-08 9.98536e-08 1.03176e-07 1.06228e-07 1.09007e-07 1.11515e-07 1.13758e-07 1.15747e-07 1.17494e-07 1.19016e-07 1.20329e-07 1.21453e-07 1.22406e-07 1.23206e-07 1.23873e-07 1.24424e-07 1.24875e-07 1.2524e-07 1.25534e-07 1.25768e-07 1.25953e-07 1.26097e-07 1.2621e-07 1.26296e-07 1.26362e-07 1.26411e-07 1.26449e-07 1.26476e-07 1.26497e-07 1.26511e-07 1.26522e-07 1.2653e-07 1.26535e-07 1.26539e-07 1.26542e-07 1.26544e-07 1.26545e-07 1.26546e-07 1.26546e-07 1.26547e-07 1.26547e-07 1.26547e-07 1.26547e-07 1.26547e-07 1.26547e-07 1.26547e-07 1.26547e-07 1.26547e-07 1.26547e-07 1.26547e-07 1.26547e-07 1.26547e-07 1.26547e-07 1.26547e-07 1.26547e-07 1.26547e-07 1.26547e-07 1.26547e-07 1.26547e-07 1.26547e-07 1.26547e-07 1.26547e-07 1.26547e-07 1.26547e-07 1.26547e-07 1.26547e-07 1.26547e-07 1.26547e-07 1.26547e-07 1.26547e-07 1.26547e-07 1.26547e-07 1.26547e-07 1.26547e-07 1.26547e-07 1.26546e-07 1.26546e-07 1.26545e-07 1.26544e-07 1.26542e-07 1.26539e-07 1.26535e-07 1.2653e-07 1.26522e-07 1.26511e-07 1.26497e-07 1.26476e-07 1.26449e-07 1.26411e-07 1.26362e-07 1.26296e-07 1.2621e-07 1.26097e-07 1.25953e-07 1.25768e-07 1.25534e-07 1.2524e-07 1.24875e-07 1.24424e-07 1.23873e-07 1.23206e-07 1.22406e-07 1.21453e-07 1.20329e-07 1.19016e-07 1.17494e-07 1.15747e-07 1.13758e-07 1.11515e-07 1.09007e-07 1.06228e-07 1.03176e-07 9.98536e-08 9.62697e-08 9.24377e-08 8.83767e-08 8.41114e-08 7.96713e-08 7.50902e-08 7.04057e-08 6.56581e-08 6.08893e-08 5.61417e-08 5.14572e-08 4.68762e-08 4.2436e-08 3.81707e-08 3.41097e-08 3.02777e-08 2.66938e-08 2.33717e-08 2.03197e-08 1.75407e-08 1.50327e-08 1.27894e-08 1.08007e-08 9.05334e-09 7.5316e-09 6.21813e-09 5.09448e-09 4.14171e-09 3.34102e-09 2.67407e-09 2.12345e-09 1.67289e-09 1.30747e-09 1.01372e-09 7.79664e-10 5.94826e-10 4.50144e-10 3.37893e-10 2.51571e-10 1.85774e-10 1.36064e-10 9.88389e-11 7.12077e-11 5.08784e-11 3.60529e-11 2.53362e-11 1.76575e-11 1.22039e-11 8.36461e-12 5.68543e-12 3.8322e-12 2.56151e-12 1.69787e-12 1.11601e-12 7.27416e-13 4.70164e-13 3.01345e-13 1.91525e-13 1.20706e-13 7.54354e-14 4.67479e-14 2.87267e-14 1.75042e-14 1.05759e-14 6.33529e-15 3.76139e-15 2.21117e-15 1.28287e-15 7.269e-16 3.88045e-16 1.67912e-16 0 
0 2.78803e-16 6.4413e-16 1.20611e-15 2.1276e-15 3.66531e-15 6.2318e-15 1.04908e-14 1.75042e-14 2.8957e-14 4.7499e-14 7.72595e-14 1.24612e-13 1.99303e-13 3.16093e-13 4.97121e-13 7.75281e-13 1.19897e-12 1.8387e-12 2.79622e-12 4.21688e-12 6.3063e-12 9.35243e-12 1.37545e-11 2.00605e-11 2.90147e-11 4.16179e-11 5.92017e-11 8.35189e-11 1.16853e-10 1.62146e-10 2.23148e-10 3.04585e-10 4.12344e-10 5.53681e-10 7.37424e-10 9.74192e-10 1.2766e-09 1.65943e-09 2.1398e-09 2.73725e-09 3.47373e-09 4.37359e-09 5.46334e-09 6.7714e-09 8.32761e-09 1.01626e-08 1.23073e-08 1.47917e-08 1.76441e-08 2.08899e-08 2.45509e-08 2.86433e-08 3.31775e-08 3.81567e-08 4.35761e-08 4.94221e-08 5.56724e-08 6.22958e-08 6.92521e-08 7.64932e-08 8.39639e-08 9.16031e-08 9.93451e-08 1.07122e-07 1.14864e-07 1.22503e-07 1.29974e-07 1.37215e-07 1.44171e-07 1.50794e-07 1.57045e-07 1.62891e-07 1.6831e-07 1.73289e-07 1.77823e-07 1.81916e-07 1.85577e-07 1.88823e-07 1.91675e-07 1.94159e-07 1.96304e-07 1.98139e-07 1.99695e-07 2.01003e-07 2.02093e-07 2.02993e-07 2.0373e-07 2.04327e-07 2.04807e-07 2.0519e-07 2.05493e-07 2.05729e-07 2.05913e-07 2.06054e-07 2.06162e-07 2.06244e-07 2.06305e-07 2.0635e-07 2.06383e-07 2.06408e-07 2.06425e-07 2.06438e-07 2.06447e-07 2.06453e-07 2.06457e-07 2.0646e-07 2.06463e-07 2.06464e-07 2.06465e-07 2.06466e-07 2.06466e-07 2.06466e-07 2.06466e-07 2.06467e-07 2.06467e-07 2.06467e-07 2.06467e-07 2.06467e-07 2.06467e-07 2.06467e-07 2.06467e-07 2.06467e-07 2.06467e-07 2.06467e-07 2.06467e-07 2.06467e-07 2.06467e-07 2.06467e-07 2.06467e-07 2.06467e-07 2.06467e-07 2.06467e-07 2.06467e-07 2.06467e-07 2.06467e-07 2.06467e-07 2.06467e-07 2.06467e-07 2.06467e-07 2.06467e-07 2.06467e-07 2.06466e-07 2.06466e-07 2.06466e-07 2.06466e-07 2.06465e-07 2.06464e-07 2.06463e-07 2.0646e-07 2.06457e-07 2.06453e-07 2.06447e-07 2.06438e-07 2.06425e-07 2.06408e-07 2.06383e-07 2.0635e-07 2.06305e-07 2.06244e-07 2.06162e-07 2.06054e-07 2.05913e-07 2.05729e-07 2.05493e-07 2.0519e-07 2.04807e-07 2.04327e-07 2.0373e-07 2.02993e-07 2.02093e-07 2.01003e-07 1.99695e-07 1.98139e-07 1.96304e-07 1.94159e-07 1.91675e-07 1.88823e-07 1.85577e-07 1.81916e-07 1.77823e-07 1.73289e-07 1.6831e-07 1.62891e-07 1.57045e-07 1.50794e-07 1.44171e-07 1.37215e-07 1.29974e-07 1.22503e-07 1.14864e-07 1.07122e-07 9.93451e-08 9.16031e-08 8.39639e-08 7.64932e-08 6.92521e-08 6.22958e-08 5.56724e-08 4.94221e-08 4.35761e-08 3.81567e-08 3.31775e-08 2.86433e-08 2.45509e-08 2.08899e-08 1.76441e-08 1.47917e-08 1.23073e-08 1.01626e-08 8.32761e-09 6.7714e-09 5.46334e-09 4.37359e-09 3.47373e-09 2.73725e-09 2.1398e-09 1.65943e-09 1.2766e-09 9.74192e-10 7.37424e-10 5.53681e-10 4.12344e-10 3.04585e-10 2.23148e-10 1.62146e-10 1.16853e-10 8.35189e-11 5.92017e-11 4.16179e-11 2.90147e-11 2.00605e-11 1.37545e-11 9.35243e-12 6.3063e-12 4.21688e-12 2.79622e-12 1.8387e-12 1.19897e-12 7.75281e-13 4.97121e-13 3.16093e-13 1.99303e-13 1.24612e-13 7.72595e-14 4.7499e-14 2.8957e-14 1.75042e-14 1.04908e-14 6.2318e-15 3.66531e-15 2.1276e-15 1.20611e-15 6.4413e-16 2.78803e-16 0 