<?xml version="1.0"?>
<VTKFile type="ImageData" version="0.1" byte_order="LittleEndian">
  <ImageData WholeExtent="0 255 0 255 0 0" Origin="0 0 0" Spacing="1 1 1">
  <Piece Extent="0 255 0 255 0 0">
    <PointData>
      <DataArray type="Float32" Name="scalar_data" format="ascii" >0 0 0 0 0 0 0 0 0 0 0 0 0 0 0 0 0 0 0 0 0 0 0 0 0 0 0 0 0 0 0 0 0 0 0 0 0 0 0 0 0 0 0 0 0 0 0 0 0 0 0 0 0 0 0 0 0 0 0 0 0 0 0 0 0 0 0 0 0 0 0 0 0 0 0 0 0 0 0 0 0 0 0 0 0 0 0 0 0 0 0 0 0 0 0 0 0 0 0 0 0 0 0 0 0 0 0 0 0 0 0 0 0 0 0 0 0 0 0 0 0 0 0 0 0 0 0 0 0 0 0 0 0 0 0 0 0 0 0 0 0 0 0 0 0 0 0 0 0 0 0 0 0 0 0 0 0 0 0 0 0 0 0 0 0 0 0 0 0 0 0 0 0 0 0 0 0 0 0 0 0 0 0 0 0 0 0 0 0 0 0 0 0 0 0 0 0 0 0 0 0 0 0 0 0 0 0 0 0 0 0 0 0 0 0 0 0 0 0 0 0 0 0 0 0 0 0 0 0 0 0 0 0 0 0 0 0 0 0 0 0 0 0 0 0 0 0 0 0 0 0 0 0 0 0 0 
0 1.97237e-34 7.20215e-34 2.39828e-33 7.79315e-33 2.48448e-32 7.77435e-32 2.38791e-31 7.1995e-31 2.13068e-30 6.18967e-30 1.76503e-29 4.94054e-29 1.35748e-28 3.66123e-28 9.69303e-28 2.519e-27 6.42589e-27 1.60907e-26 3.95503e-26 9.54242e-26 2.25996e-25 5.25383e-25 1.1989e-24 2.68548e-24 5.90461e-24 1.27436e-23 2.69977e-23 5.61429e-23 1.14603e-22 2.29635e-22 4.5167e-22 8.72065e-22 1.65283e-21 3.07513e-21 5.61649e-21 1.00703e-20 1.77257e-20 3.06311e-20 5.19679e-20 8.65643e-20 1.41577e-19 2.27362e-19 3.58545e-19 5.55258e-19 8.44515e-19 1.26158e-18 1.85125e-18 2.66869e-18 3.77981e-18 5.26066e-18 7.19569e-18 9.6748e-18 1.27888e-17 1.66237e-17 2.12539e-17 2.67347e-17 3.30951e-17 4.03313e-17 4.84024e-17 5.72276e-17 6.6688e-17 7.66299e-17 8.68724e-17 9.7217e-17 1.07459e-16 1.17401e-16 1.26862e-16 1.35687e-16 1.43758e-16 1.50994e-16 1.57355e-16 1.62835e-16 1.67466e-16 1.71301e-16 1.74415e-16 1.76894e-16 1.78829e-16 1.8031e-16 1.81421e-16 1.82238e-16 1.82828e-16 1.83245e-16 1.83534e-16 1.83731e-16 1.83862e-16 1.83948e-16 1.84003e-16 1.84037e-16 1.84059e-16 1.84072e-16 1.84079e-16 1.84084e-16 1.84086e-16 1.84088e-16 1.84089e-16 1.84089e-16 1.84089e-16 1.84089e-16 1.84089e-16 1.84089e-16 1.84089e-16 1.84089e-16 1.84089e-16 1.84089e-16 1.84089e-16 1.84089e-16 1.84089e-16 1.84089e-16 1.84089e-16 1.84089e-16 1.84089e-16 1.84089e-16 1.84089e-16 1.84089e-16 1.84089e-16 1.84089e-16 1.84089e-16 1.84089e-16 1.84089e-16 1.84089e-16 1.84089e-16 1.84089e-16 1.84089e-16 1.84089e-16 1.84089e-16 1.84089e-16 1.84089e-16 1.84089e-16 1.84089e-16 1.84089e-16 1.84089e-16 1.84089e-16 1.84089e-16 1.84089e-16 1.84089e-16 1.84089e-16 1.84089e-16 1.84089e-16 1.84089e-16 1.84089e-16 1.84089e-16 1.84089e-16 1.84089e-16 1.84089e-16 1.84089e-16 1.84089e-16 1.84089e-16 1.84089e-16 1.84089e-16 1.84089e-16 1.84089e-16 1.84089e-16 1.84089e-16 1.84089e-16 1.84089e-16 1.84089e-16 1.84089e-16 1.84089e-16 1.84089e-16 1.84089e-16 1.84088e-16 1.84086e-16 1.84084e-16 1.84079e-16 1.84072e-16 1.84059e-16 1.84037e-16 1.84003e-16 1.83948e-16 1.83862e-16 1.83731e-16 1.83534e-16 1.83245e-16 1.82828e-16 1.82238e-16 1.81421e-16 1.8031e-16 1.78829e-16 1.76894e-16 1.74415e-16 1.71301e-16 1.67466e-16 1.62835e-16 1.57355e-16 1.50994e-16 1.43758e-16 1.35687e-16 1.26862e-16 1.17401e-16 1.07459e-16 9.7217e-17 8.68724e-17 7.66299e-17 6.6688e-17 5.72276e-17 4.84024e-17 4.03313e-17 3.30951e-17 2.67347e-17 2.12539e-17 1.66237e-17 1.27888e-17 9.6748e-18 7.19569e-18 5.26066e-18 3.77981e-18 2.66869e-18 1.85125e-18 1.26158e-18 8.44515e-19 5.55258e-19 3.58545e-19 2.27362e-19 1.41577e-19 8.65643e-20 5.19679e-20 3.06311e-20 1.77257e-20 1.00703e-20 5.61649e-21 3.07513e-21 1.65283e-21 8.72065e-22 4.5167e-22 2.29635e-22 1.14603e-22 5.61429e-23 2.69977e-23 1.27436e-23 5.90461e-24 2.68548e-24 1.1989e-24 5.25383e-25 2.25996e-25 9.54242e-26 3.95503e-26 1.60907e-26 6.42589e-27 2.519e-27 9.69303e-28 3.66123e-28 1.35748e-28 4.94054e-29 1.76503e-29 6.18967e-30 2.13068e-30 7.1995e-31 2.38791e-31 7.77435e-32 2.48448e-32 7.79315e-33 2.39828e-33 7.20215e-34 1.97237e-34 0 
0 7.20215e-34 2.61982e-33 8.68602e-33 2.81024e-32 8.9209e-32 2.77984e-31 8.50342e-31 2.5535e-30 7.52745e-30 2.17837e-29 6.18851e-29 1.72589e-28 4.72513e-28 1.26995e-27 3.35067e-27 8.67857e-27 2.20666e-26 5.50797e-26 1.34964e-25 3.24645e-25 7.66597e-25 1.77701e-24 4.0437e-24 9.03296e-24 1.98082e-23 4.26406e-23 9.01086e-23 1.86928e-22 3.80668e-22 7.61008e-22 1.49349e-21 2.87736e-21 5.44208e-21 1.01047e-20 1.84195e-20 3.29637e-20 5.79175e-20 9.99104e-20 1.69221e-19 2.81422e-19 4.59558e-19 7.36926e-19 1.16047e-18 1.79474e-18 2.72619e-18 4.06759e-18 5.9619e-18 8.58512e-18 1.21471e-17 1.68898e-17 2.30817e-17 3.1008e-17 4.09567e-17 5.32001e-17 6.79734e-17 8.54508e-17 1.05723e-16 1.28777e-16 1.54481e-16 1.82579e-16 2.12693e-16 2.44333e-16 2.76927e-16 3.09846e-16 3.4244e-16 3.7408e-16 4.04194e-16 4.32292e-16 4.57996e-16 4.8105e-16 5.01322e-16 5.188e-16 5.33573e-16 5.45816e-16 5.55765e-16 5.63691e-16 5.69883e-16 5.74626e-16 5.78188e-16 5.80811e-16 5.82705e-16 5.84047e-16 5.84978e-16 5.85612e-16 5.86036e-16 5.86313e-16 5.86492e-16 5.86604e-16 5.86673e-16 5.86715e-16 5.8674e-16 5.86755e-16 5.86763e-16 5.86768e-16 5.8677e-16 5.86772e-16 5.86772e-16 5.86773e-16 5.86773e-16 5.86773e-16 5.86773e-16 5.86773e-16 5.86773e-16 5.86773e-16 5.86773e-16 5.86773e-16 5.86773e-16 5.86773e-16 5.86773e-16 5.86773e-16 5.86773e-16 5.86773e-16 5.86773e-16 5.86773e-16 5.86773e-16 5.86773e-16 5.86773e-16 5.86773e-16 5.86773e-16 5.86773e-16 5.86773e-16 5.86773e-16 5.86773e-16 5.86773e-16 5.86773e-16 5.86773e-16 5.86773e-16 5.86773e-16 5.86773e-16 5.86773e-16 5.86773e-16 5.86773e-16 5.86773e-16 5.86773e-16 5.86773e-16 5.86773e-16 5.86773e-16 5.86773e-16 5.86773e-16 5.86773e-16 5.86773e-16 5.86773e-16 5.86773e-16 5.86773e-16 5.86773e-16 5.86773e-16 5.86773e-16 5.86773e-16 5.86773e-16 5.86773e-16 5.86773e-16 5.86773e-16 5.86773e-16 5.86773e-16 5.86773e-16 5.86773e-16 5.86773e-16 5.86772e-16 5.86772e-16 5.8677e-16 5.86768e-16 5.86763e-16 5.86755e-16 5.8674e-16 5.86715e-16 5.86673e-16 5.86604e-16 5.86492e-16 5.86313e-16 5.86036e-16 5.85612e-16 5.84978e-16 5.84047e-16 5.82705e-16 5.80811e-16 5.78188e-16 5.74626e-16 5.69883e-16 5.63691e-16 5.55765e-16 5.45816e-16 5.33573e-16 5.188e-16 5.01322e-16 4.8105e-16 4.57996e-16 4.32292e-16 4.04194e-16 3.7408e-16 3.4244e-16 3.09846e-16 2.76927e-16 2.44333e-16 2.12693e-16 1.82579e-16 1.54481e-16 1.28777e-16 1.05723e-16 8.54508e-17 6.79734e-17 5.32001e-17 4.09567e-17 3.1008e-17 2.30817e-17 1.68898e-17 1.21471e-17 8.58512e-18 5.9619e-18 4.06759e-18 2.72619e-18 1.79474e-18 1.16047e-18 7.36926e-19 4.59558e-19 2.81422e-19 1.69221e-19 9.99104e-20 5.79175e-20 3.29637e-20 1.84195e-20 1.01047e-20 5.44208e-21 2.87736e-21 1.49349e-21 7.61008e-22 3.80668e-22 1.86928e-22 9.01086e-23 4.26406e-23 1.98082e-23 9.03296e-24 4.0437e-24 1.77701e-24 7.66597e-25 3.24645e-25 1.34964e-25 5.50797e-26 2.20666e-26 8.67857e-27 3.35067e-27 1.26995e-27 4.72513e-28 1.72589e-28 6.18851e-29 2.17837e-29 7.52745e-30 2.5535e-30 8.50342e-31 2.77984e-31 8.9209e-32 2.81024e-32 8.68602e-33 2.61982e-33 7.20215e-34 0 
0 2.39828e-33 8.68602e-33 2.86565e-32 9.22553e-32 2.91433e-31 9.03799e-31 2.75176e-30 8.22542e-30 2.41388e-29 6.95482e-29 1.96728e-28 5.46337e-28 1.48959e-27 3.98733e-27 1.04787e-26 2.70362e-26 6.84842e-26 1.70311e-25 4.15815e-25 9.96694e-25 2.34545e-24 5.41868e-24 1.22903e-23 2.73671e-23 5.98267e-23 1.28399e-22 2.70537e-22 5.59618e-22 1.13647e-21 2.26584e-21 4.43515e-21 8.52308e-21 1.60806e-20 2.97871e-20 5.41731e-20 9.67338e-20 1.69599e-19 2.91963e-19 4.93527e-19 8.19193e-19 1.33529e-18 2.13747e-18 3.36034e-18 5.18868e-18 7.8696e-18 1.17248e-17 1.71617e-17 2.46809e-17 3.48787e-17 4.84413e-17 6.61294e-17 8.875e-17 1.17117e-16 1.51998e-16 1.94055e-16 2.43777e-16 3.01417e-16 3.66933e-16 4.39949e-16 5.19737e-16 6.05223e-16 6.95028e-16 7.87529e-16 8.80945e-16 9.73446e-16 1.06325e-15 1.14874e-15 1.22853e-15 1.30154e-15 1.36706e-15 1.4247e-15 1.47442e-15 1.51648e-15 1.55136e-15 1.57972e-15 1.60234e-15 1.62003e-15 1.6336e-15 1.64379e-15 1.65131e-15 1.65675e-15 1.6606e-15 1.66329e-15 1.66511e-15 1.66634e-15 1.66714e-15 1.66765e-15 1.66798e-15 1.66818e-15 1.6683e-15 1.66838e-15 1.66842e-15 1.66844e-15 1.66846e-15 1.66847e-15 1.66847e-15 1.66847e-15 1.66847e-15 1.66847e-15 1.66847e-15 1.66847e-15 1.66847e-15 1.66847e-15 1.66847e-15 1.66847e-15 1.66847e-15 1.66847e-15 1.66847e-15 1.66847e-15 1.66847e-15 1.66847e-15 1.66847e-15 1.66847e-15 1.66847e-15 1.66847e-15 1.66847e-15 1.66847e-15 1.66847e-15 1.66847e-15 1.66847e-15 1.66847e-15 1.66847e-15 1.66847e-15 1.66847e-15 1.66847e-15 1.66847e-15 1.66847e-15 1.66847e-15 1.66847e-15 1.66847e-15 1.66847e-15 1.66847e-15 1.66847e-15 1.66847e-15 1.66847e-15 1.66847e-15 1.66847e-15 1.66847e-15 1.66847e-15 1.66847e-15 1.66847e-15 1.66847e-15 1.66847e-15 1.66847e-15 1.66847e-15 1.66847e-15 1.66847e-15 1.66847e-15 1.66847e-15 1.66847e-15 1.66847e-15 1.66847e-15 1.66847e-15 1.66847e-15 1.66847e-15 1.66847e-15 1.66847e-15 1.66847e-15 1.66847e-15 1.66847e-15 1.66846e-15 1.66844e-15 1.66842e-15 1.66838e-15 1.6683e-15 1.66818e-15 1.66798e-15 1.66765e-15 1.66714e-15 1.66634e-15 1.66511e-15 1.66329e-15 1.6606e-15 1.65675e-15 1.65131e-15 1.64379e-15 1.6336e-15 1.62003e-15 1.60234e-15 1.57972e-15 1.55136e-15 1.51648e-15 1.47442e-15 1.4247e-15 1.36706e-15 1.30154e-15 1.22853e-15 1.14874e-15 1.06325e-15 9.73446e-16 8.80945e-16 7.87529e-16 6.95028e-16 6.05223e-16 5.19737e-16 4.39949e-16 3.66933e-16 3.01417e-16 2.43777e-16 1.94055e-16 1.51998e-16 1.17117e-16 8.875e-17 6.61294e-17 4.84413e-17 3.48787e-17 2.46809e-17 1.71617e-17 1.17248e-17 7.8696e-18 5.18868e-18 3.36034e-18 2.13747e-18 1.33529e-18 8.19193e-19 4.93527e-19 2.91963e-19 1.69599e-19 9.67338e-20 5.41731e-20 2.97871e-20 1.60806e-20 8.52308e-21 4.43515e-21 2.26584e-21 1.13647e-21 5.59618e-22 2.70537e-22 1.28399e-22 5.98267e-23 2.73671e-23 1.22903e-23 5.41868e-24 2.34545e-24 9.96694e-25 4.15815e-25 1.70311e-25 6.84842e-26 2.70362e-26 1.04787e-26 3.98733e-27 1.48959e-27 5.46337e-28 1.96728e-28 6.95482e-29 2.41388e-29 8.22542e-30 2.75176e-30 9.03799e-31 2.91433e-31 9.22553e-32 2.86565e-32 8.68602e-33 2.39828e-33 0 
0 7.79315e-33 2.81024e-32 9.22553e-32 2.95526e-31 9.28996e-31 2.8672e-30 8.68859e-30 2.58517e-29 7.55232e-29 2.16632e-28 6.10119e-28 1.68717e-27 4.58092e-27 1.22123e-26 3.19661e-26 8.21541e-26 2.07307e-25 5.13624e-25 1.24945e-24 2.98423e-24 6.99818e-24 1.6113e-23 3.64255e-23 8.08482e-23 1.76186e-22 3.76968e-22 7.91908e-22 1.63335e-21 3.30767e-21 6.57664e-21 1.28389e-20 2.46091e-20 4.63144e-20 8.55841e-20 1.55287e-19 2.76661e-19 4.84001e-19 8.31459e-19 1.40264e-18 2.3237e-18 3.78059e-18 6.041e-18 9.48097e-18 1.46157e-17 2.21331e-17 3.29274e-17 4.81289e-17 6.91248e-17 9.75649e-17 1.35345e-16 1.84564e-16 2.47446e-16 3.26229e-16 4.23022e-16 5.39641e-16 6.7742e-16 8.37042e-16 1.01838e-15 1.22039e-15 1.44106e-15 1.67742e-15 1.92567e-15 2.18134e-15 2.43953e-15 2.6952e-15 2.94345e-15 3.17981e-15 3.40048e-15 3.60249e-15 3.78382e-15 3.94345e-15 4.08122e-15 4.19784e-15 4.29464e-15 4.37342e-15 4.4363e-15 4.48552e-15 4.5233e-15 4.55174e-15 4.57274e-15 4.58794e-15 4.59873e-15 4.60625e-15 4.61138e-15 4.61482e-15 4.61708e-15 4.61854e-15 4.61946e-15 4.62003e-15 4.62038e-15 4.62059e-15 4.62071e-15 4.62078e-15 4.62082e-15 4.62084e-15 4.62085e-15 4.62086e-15 4.62086e-15 4.62086e-15 4.62086e-15 4.62087e-15 4.62087e-15 4.62087e-15 4.62087e-15 4.62087e-15 4.62087e-15 4.62087e-15 4.62087e-15 4.62087e-15 4.62087e-15 4.62087e-15 4.62087e-15 4.62087e-15 4.62087e-15 4.62087e-15 4.62087e-15 4.62087e-15 4.62087e-15 4.62087e-15 4.62087e-15 4.62087e-15 4.62087e-15 4.62087e-15 4.62087e-15 4.62087e-15 4.62087e-15 4.62087e-15 4.62087e-15 4.62087e-15 4.62087e-15 4.62087e-15 4.62087e-15 4.62087e-15 4.62087e-15 4.62087e-15 4.62087e-15 4.62087e-15 4.62087e-15 4.62087e-15 4.62087e-15 4.62087e-15 4.62087e-15 4.62087e-15 4.62087e-15 4.62087e-15 4.62087e-15 4.62087e-15 4.62087e-15 4.62087e-15 4.62087e-15 4.62087e-15 4.62087e-15 4.62087e-15 4.62087e-15 4.62086e-15 4.62086e-15 4.62086e-15 4.62086e-15 4.62085e-15 4.62084e-15 4.62082e-15 4.62078e-15 4.62071e-15 4.62059e-15 4.62038e-15 4.62003e-15 4.61946e-15 4.61854e-15 4.61708e-15 4.61482e-15 4.61138e-15 4.60625e-15 4.59873e-15 4.58794e-15 4.57274e-15 4.55174e-15 4.5233e-15 4.48552e-15 4.4363e-15 4.37342e-15 4.29464e-15 4.19784e-15 4.08122e-15 3.94345e-15 3.78382e-15 3.60249e-15 3.40048e-15 3.17981e-15 2.94345e-15 2.6952e-15 2.43953e-15 2.18134e-15 1.92567e-15 1.67742e-15 1.44106e-15 1.22039e-15 1.01838e-15 8.37042e-16 6.7742e-16 5.39641e-16 4.23022e-16 3.26229e-16 2.47446e-16 1.84564e-16 1.35345e-16 9.75649e-17 6.91248e-17 4.81289e-17 3.29274e-17 2.21331e-17 1.46157e-17 9.48097e-18 6.041e-18 3.78059e-18 2.3237e-18 1.40264e-18 8.31459e-19 4.84001e-19 2.76661e-19 1.55287e-19 8.55841e-20 4.63144e-20 2.46091e-20 1.28389e-20 6.57664e-21 3.30767e-21 1.63335e-21 7.91908e-22 3.76968e-22 1.76186e-22 8.08482e-23 3.64255e-23 1.6113e-23 6.99818e-24 2.98423e-24 1.24945e-24 5.13624e-25 2.07307e-25 8.21541e-26 3.19661e-26 1.22123e-26 4.58092e-27 1.68717e-27 6.10119e-28 2.16632e-28 7.55232e-29 2.58517e-29 8.68859e-30 2.8672e-30 9.28996e-31 2.95526e-31 9.22553e-32 2.81024e-32 7.79315e-33 0 
0 2.48448e-32 8.92091e-32 2.91433e-31 9.28996e-31 2.90628e-30 8.92742e-30 2.69278e-29 7.97563e-29 2.31963e-28 6.62464e-28 1.85779e-27 5.11585e-27 1.38334e-26 3.67305e-26 9.57657e-26 2.45176e-25 6.16352e-25 1.52146e-24 3.68783e-24 8.77726e-24 2.05127e-23 4.70717e-23 1.06065e-22 2.34667e-22 5.09804e-22 1.08749e-21 2.27781e-21 4.68467e-21 9.46048e-21 1.87595e-20 3.65262e-20 6.98344e-20 1.31105e-19 2.4169e-19 4.37521e-19 7.77759e-19 1.35772e-18 2.32758e-18 3.91871e-18 6.47954e-18 1.05227e-17 1.67846e-17 2.6298e-17 4.04755e-17 6.11998e-17 9.09145e-17 1.32704e-16 1.90347e-16 2.68332e-16 3.71811e-16 5.06476e-16 6.78353e-16 8.93496e-16 1.15761e-15 1.47557e-15 1.85098e-15 2.28564e-15 2.77919e-15 3.32876e-15 3.92887e-15 4.57148e-15 5.24629e-15 5.94119e-15 6.64291e-15 7.3378e-15 8.01261e-15 8.65522e-15 9.25533e-15 9.8049e-15 1.02985e-14 1.07331e-14 1.11085e-14 1.14265e-14 1.16906e-14 1.19057e-14 1.20776e-14 1.22123e-14 1.23158e-14 1.23937e-14 1.24514e-14 1.24932e-14 1.25229e-14 1.25436e-14 1.25578e-14 1.25673e-14 1.25736e-14 1.25776e-14 1.25802e-14 1.25818e-14 1.25827e-14 1.25833e-14 1.25837e-14 1.25839e-14 1.2584e-14 1.2584e-14 1.25841e-14 1.25841e-14 1.25841e-14 1.25841e-14 1.25841e-14 1.25841e-14 1.25841e-14 1.25841e-14 1.25841e-14 1.25841e-14 1.25841e-14 1.25841e-14 1.25841e-14 1.25841e-14 1.25841e-14 1.25841e-14 1.25841e-14 1.25841e-14 1.25841e-14 1.25841e-14 1.25841e-14 1.25841e-14 1.25841e-14 1.25841e-14 1.25841e-14 1.25841e-14 1.25841e-14 1.25841e-14 1.25841e-14 1.25841e-14 1.25841e-14 1.25841e-14 1.25841e-14 1.25841e-14 1.25841e-14 1.25841e-14 1.25841e-14 1.25841e-14 1.25841e-14 1.25841e-14 1.25841e-14 1.25841e-14 1.25841e-14 1.25841e-14 1.25841e-14 1.25841e-14 1.25841e-14 1.25841e-14 1.25841e-14 1.25841e-14 1.25841e-14 1.25841e-14 1.25841e-14 1.25841e-14 1.25841e-14 1.25841e-14 1.25841e-14 1.25841e-14 1.25841e-14 1.25841e-14 1.25841e-14 1.25841e-14 1.25841e-14 1.25841e-14 1.2584e-14 1.2584e-14 1.25839e-14 1.25837e-14 1.25833e-14 1.25827e-14 1.25818e-14 1.25802e-14 1.25776e-14 1.25736e-14 1.25673e-14 1.25578e-14 1.25436e-14 1.25229e-14 1.24932e-14 1.24514e-14 1.23937e-14 1.23158e-14 1.22123e-14 1.20776e-14 1.19057e-14 1.16906e-14 1.14265e-14 1.11085e-14 1.07331e-14 1.02985e-14 9.8049e-15 9.25533e-15 8.65522e-15 8.01261e-15 7.3378e-15 6.64291e-15 5.94119e-15 5.24629e-15 4.57148e-15 3.92887e-15 3.32876e-15 2.77919e-15 2.28564e-15 1.85098e-15 1.47557e-15 1.15761e-15 8.93496e-16 6.78353e-16 5.06476e-16 3.71811e-16 2.68332e-16 1.90347e-16 1.32704e-16 9.09145e-17 6.11998e-17 4.04755e-17 2.6298e-17 1.67846e-17 1.05227e-17 6.47954e-18 3.91871e-18 2.32758e-18 1.35772e-18 7.77759e-19 4.37521e-19 2.4169e-19 1.31105e-19 6.98344e-20 3.65262e-20 1.87595e-20 9.46048e-21 4.68467e-21 2.27781e-21 1.08749e-21 5.09804e-22 2.34667e-22 1.06065e-22 4.70717e-23 2.05127e-23 8.77726e-24 3.68783e-24 1.52146e-24 6.16352e-25 2.45176e-25 9.57657e-26 3.67305e-26 1.38334e-26 5.11585e-27 1.85779e-27 6.62464e-28 2.31963e-28 7.97563e-29 2.69278e-29 8.92742e-30 2.90628e-30 9.28996e-31 2.91433e-31 8.92091e-32 2.48448e-32 0 
0 7.77435e-32 2.77984e-31 9.03799e-31 2.8672e-30 8.92742e-30 2.72959e-29 8.19588e-29 2.41669e-28 6.99799e-28 1.99e-27 5.55728e-27 1.52404e-26 4.10447e-26 1.08553e-25 2.81934e-25 7.19076e-25 1.80103e-24 4.4298e-24 1.06994e-23 2.53776e-23 5.91088e-23 1.35195e-22 3.03654e-22 6.69734e-22 1.45054e-21 3.08506e-21 6.44319e-21 1.32143e-20 2.66128e-20 5.26315e-20 1.02214e-19 1.94936e-19 3.65082e-19 6.71449e-19 1.21274e-18 2.15112e-18 3.74724e-18 6.41095e-18 1.07724e-17 1.77785e-17 2.88199e-17 4.58908e-17 7.17828e-17 1.10307e-16 1.66536e-16 2.47043e-16 3.6011e-16 5.15872e-16 7.26349e-16 1.00532e-15 1.36798e-15 1.83041e-15 2.40874e-15 3.1181e-15 3.97149e-15 4.97838e-15 6.14354e-15 7.46586e-15 8.93765e-15 1.05442e-14 1.22641e-14 1.40699e-14 1.59291e-14 1.78066e-14 1.96658e-14 2.14715e-14 2.31914e-14 2.4798e-14 2.62698e-14 2.75921e-14 2.87573e-14 2.97642e-14 3.06176e-14 3.13269e-14 3.19052e-14 3.23677e-14 3.27303e-14 3.30093e-14 3.32198e-14 3.33755e-14 3.34886e-14 3.35691e-14 3.36253e-14 3.36639e-14 3.36898e-14 3.37068e-14 3.37179e-14 3.37249e-14 3.37292e-14 3.37319e-14 3.37335e-14 3.37344e-14 3.3735e-14 3.37353e-14 3.37355e-14 3.37356e-14 3.37356e-14 3.37356e-14 3.37356e-14 3.37356e-14 3.37357e-14 3.37357e-14 3.37357e-14 3.37357e-14 3.37357e-14 3.37357e-14 3.37357e-14 3.37357e-14 3.37357e-14 3.37357e-14 3.37357e-14 3.37357e-14 3.37357e-14 3.37357e-14 3.37357e-14 3.37357e-14 3.37357e-14 3.37357e-14 3.37357e-14 3.37357e-14 3.37357e-14 3.37357e-14 3.37357e-14 3.37357e-14 3.37357e-14 3.37357e-14 3.37357e-14 3.37357e-14 3.37357e-14 3.37357e-14 3.37357e-14 3.37357e-14 3.37357e-14 3.37357e-14 3.37357e-14 3.37357e-14 3.37357e-14 3.37357e-14 3.37357e-14 3.37357e-14 3.37357e-14 3.37357e-14 3.37357e-14 3.37357e-14 3.37357e-14 3.37357e-14 3.37357e-14 3.37357e-14 3.37357e-14 3.37357e-14 3.37357e-14 3.37357e-14 3.37357e-14 3.37357e-14 3.37356e-14 3.37356e-14 3.37356e-14 3.37356e-14 3.37356e-14 3.37355e-14 3.37353e-14 3.3735e-14 3.37344e-14 3.37335e-14 3.37319e-14 3.37292e-14 3.37249e-14 3.37179e-14 3.37068e-14 3.36898e-14 3.36639e-14 3.36253e-14 3.35691e-14 3.34886e-14 3.33755e-14 3.32198e-14 3.30093e-14 3.27303e-14 3.23677e-14 3.19052e-14 3.13269e-14 3.06176e-14 2.97642e-14 2.87573e-14 2.75921e-14 2.62698e-14 2.4798e-14 2.31914e-14 2.14715e-14 1.96658e-14 1.78066e-14 1.59291e-14 1.40699e-14 1.22641e-14 1.05442e-14 8.93765e-15 7.46586e-15 6.14354e-15 4.97838e-15 3.97149e-15 3.1181e-15 2.40874e-15 1.83041e-15 1.36798e-15 1.00532e-15 7.26349e-16 5.15872e-16 3.6011e-16 2.47043e-16 1.66536e-16 1.10307e-16 7.17828e-17 4.58908e-17 2.88199e-17 1.77785e-17 1.07724e-17 6.41095e-18 3.74724e-18 2.15112e-18 1.21274e-18 6.71449e-19 3.65082e-19 1.94936e-19 1.02214e-19 5.26315e-20 2.66128e-20 1.32143e-20 6.44319e-21 3.08506e-21 1.45054e-21 6.69734e-22 3.03654e-22 1.35195e-22 5.91088e-23 2.53776e-23 1.06994e-23 4.4298e-24 1.80103e-24 7.19076e-25 2.81934e-25 1.08553e-25 4.10447e-26 1.52404e-26 5.55728e-27 1.99e-27 6.99799e-28 2.41669e-28 8.19588e-29 2.72959e-29 8.92742e-30 2.8672e-30 9.03799e-31 2.77984e-31 7.77435e-32 0 
0 2.38791e-31 8.50342e-31 2.75176e-30 8.68859e-30 2.69278e-29 8.19588e-29 2.44993e-28 7.19244e-28 2.07379e-27 5.87245e-27 1.63319e-26 4.46086e-26 1.19664e-25 3.15258e-25 8.15694e-25 2.07274e-24 5.1727e-24 1.26777e-23 3.05151e-23 7.21332e-23 1.67456e-22 3.81778e-22 8.54796e-22 1.87955e-21 4.05867e-21 8.60701e-21 1.7925e-20 3.66609e-20 7.36356e-20 1.45249e-19 2.81372e-19 5.353e-19 1.00015e-18 1.83523e-18 3.30735e-18 5.85388e-18 1.01763e-17 1.73754e-17 2.91401e-17 4.80035e-17 7.76785e-17 1.2348e-16 1.92836e-16 2.95868e-16 4.46029e-16 6.60721e-16 9.61842e-16 1.37615e-15 1.93534e-15 2.67567e-15 3.63713e-15 4.86191e-15 6.3923e-15 8.26797e-15 1.05228e-14 1.31815e-14 1.62564e-14 1.97443e-14 2.36248e-14 2.78593e-14 3.23912e-14 3.71484e-14 4.2046e-14 4.69914e-14 5.1889e-14 5.66462e-14 6.11781e-14 6.54126e-14 6.92931e-14 7.2781e-14 7.58559e-14 7.85146e-14 8.07695e-14 8.26451e-14 8.41755e-14 8.54003e-14 8.63618e-14 8.71021e-14 8.76613e-14 8.80756e-14 8.83767e-14 8.85914e-14 8.87416e-14 8.88446e-14 8.8914e-14 8.89598e-14 8.89894e-14 8.90083e-14 8.90201e-14 8.90273e-14 8.90316e-14 8.90341e-14 8.90356e-14 8.90364e-14 8.90369e-14 8.90372e-14 8.90373e-14 8.90374e-14 8.90374e-14 8.90374e-14 8.90374e-14 8.90374e-14 8.90374e-14 8.90374e-14 8.90374e-14 8.90374e-14 8.90374e-14 8.90374e-14 8.90374e-14 8.90374e-14 8.90374e-14 8.90374e-14 8.90374e-14 8.90374e-14 8.90374e-14 8.90374e-14 8.90374e-14 8.90374e-14 8.90374e-14 8.90374e-14 8.90374e-14 8.90374e-14 8.90374e-14 8.90374e-14 8.90374e-14 8.90374e-14 8.90374e-14 8.90374e-14 8.90374e-14 8.90374e-14 8.90374e-14 8.90374e-14 8.90374e-14 8.90374e-14 8.90374e-14 8.90374e-14 8.90374e-14 8.90374e-14 8.90374e-14 8.90374e-14 8.90374e-14 8.90374e-14 8.90374e-14 8.90374e-14 8.90374e-14 8.90374e-14 8.90374e-14 8.90374e-14 8.90374e-14 8.90374e-14 8.90374e-14 8.90374e-14 8.90374e-14 8.90374e-14 8.90374e-14 8.90374e-14 8.90374e-14 8.90373e-14 8.90372e-14 8.90369e-14 8.90364e-14 8.90356e-14 8.90341e-14 8.90316e-14 8.90273e-14 8.90201e-14 8.90083e-14 8.89894e-14 8.89598e-14 8.8914e-14 8.88446e-14 8.87416e-14 8.85914e-14 8.83767e-14 8.80756e-14 8.76613e-14 8.71021e-14 8.63618e-14 8.54003e-14 8.41755e-14 8.26451e-14 8.07695e-14 7.85146e-14 7.58559e-14 7.2781e-14 6.92931e-14 6.54126e-14 6.11781e-14 5.66462e-14 5.1889e-14 4.69914e-14 4.2046e-14 3.71484e-14 3.23912e-14 2.78593e-14 2.36248e-14 1.97443e-14 1.62564e-14 1.31815e-14 1.05228e-14 8.26797e-15 6.3923e-15 4.86191e-15 3.63713e-15 2.67567e-15 1.93534e-15 1.37615e-15 9.61842e-16 6.60721e-16 4.46029e-16 2.95868e-16 1.92836e-16 1.2348e-16 7.76785e-17 4.80035e-17 2.91401e-17 1.73754e-17 1.01763e-17 5.85388e-18 3.30735e-18 1.83523e-18 1.00015e-18 5.353e-19 2.81372e-19 1.45249e-19 7.36356e-20 3.66609e-20 1.7925e-20 8.60701e-21 4.05867e-21 1.87955e-21 8.54796e-22 3.81778e-22 1.67456e-22 7.21332e-23 3.05151e-23 1.26777e-23 5.1727e-24 2.07274e-24 8.15694e-25 3.15258e-25 1.19664e-25 4.46086e-26 1.63319e-26 5.87245e-27 2.07379e-27 7.19244e-28 2.44993e-28 8.19588e-29 2.69278e-29 8.68859e-30 2.75176e-30 8.50342e-31 2.38791e-31 0 
0 7.1995e-31 2.5535e-30 8.22542e-30 2.58517e-29 7.97563e-29 2.41669e-28 7.19244e-28 2.10249e-27 6.03665e-27 1.70239e-26 4.71544e-26 1.28288e-25 3.42803e-25 8.99705e-25 2.31926e-24 5.87204e-24 1.46022e-23 3.56642e-23 8.55521e-23 2.01563e-22 4.66413e-22 1.06e-21 2.36602e-21 5.18685e-21 1.11676e-20 2.36151e-20 4.90444e-20 1.00037e-19 2.00403e-19 3.94294e-19 7.61925e-19 1.44606e-18 2.69551e-18 4.93501e-18 8.87426e-18 1.56741e-17 2.71924e-17 4.63384e-17 7.75672e-17 1.27548e-16 2.06038e-16 3.2698e-16 5.09824e-16 7.81039e-16 1.17574e-15 1.73927e-15 2.52865e-15 3.6134e-15 5.07578e-15 7.00981e-15 9.51897e-15 1.27123e-14 1.66991e-14 2.15816e-14 2.74469e-14 3.43583e-14 4.23471e-14 5.14046e-14 6.14775e-14 7.24655e-14 8.42223e-14 9.6561e-14 1.09263e-13 1.22088e-13 1.34789e-13 1.47128e-13 1.58885e-13 1.69873e-13 1.79946e-13 1.89003e-13 1.96992e-13 2.03904e-13 2.09769e-13 2.14651e-13 2.18638e-13 2.21831e-13 2.24341e-13 2.26275e-13 2.27737e-13 2.28822e-13 2.29611e-13 2.30175e-13 2.30569e-13 2.30841e-13 2.31023e-13 2.31144e-13 2.31223e-13 2.31273e-13 2.31304e-13 2.31323e-13 2.31335e-13 2.31342e-13 2.31345e-13 2.31348e-13 2.31349e-13 2.3135e-13 2.3135e-13 2.3135e-13 2.3135e-13 2.3135e-13 2.3135e-13 2.3135e-13 2.3135e-13 2.3135e-13 2.3135e-13 2.3135e-13 2.3135e-13 2.3135e-13 2.3135e-13 2.3135e-13 2.3135e-13 2.3135e-13 2.3135e-13 2.3135e-13 2.3135e-13 2.3135e-13 2.3135e-13 2.3135e-13 2.3135e-13 2.3135e-13 2.3135e-13 2.3135e-13 2.3135e-13 2.3135e-13 2.3135e-13 2.3135e-13 2.3135e-13 2.3135e-13 2.3135e-13 2.3135e-13 2.3135e-13 2.3135e-13 2.3135e-13 2.3135e-13 2.3135e-13 2.3135e-13 2.3135e-13 2.3135e-13 2.3135e-13 2.3135e-13 2.3135e-13 2.3135e-13 2.3135e-13 2.3135e-13 2.3135e-13 2.3135e-13 2.3135e-13 2.3135e-13 2.3135e-13 2.3135e-13 2.3135e-13 2.3135e-13 2.3135e-13 2.3135e-13 2.3135e-13 2.3135e-13 2.3135e-13 2.3135e-13 2.3135e-13 2.31349e-13 2.31348e-13 2.31345e-13 2.31342e-13 2.31335e-13 2.31323e-13 2.31304e-13 2.31273e-13 2.31223e-13 2.31144e-13 2.31023e-13 2.30841e-13 2.30569e-13 2.30175e-13 2.29611e-13 2.28822e-13 2.27737e-13 2.26275e-13 2.24341e-13 2.21831e-13 2.18638e-13 2.14651e-13 2.09769e-13 2.03904e-13 1.96992e-13 1.89003e-13 1.79946e-13 1.69873e-13 1.58885e-13 1.47128e-13 1.34789e-13 1.22088e-13 1.09263e-13 9.6561e-14 8.42223e-14 7.24655e-14 6.14775e-14 5.14046e-14 4.23471e-14 3.43583e-14 2.74469e-14 2.15816e-14 1.66991e-14 1.27123e-14 9.51897e-15 7.00981e-15 5.07578e-15 3.6134e-15 2.52865e-15 1.73927e-15 1.17574e-15 7.81039e-16 5.09824e-16 3.2698e-16 2.06038e-16 1.27548e-16 7.75672e-17 4.63384e-17 2.71924e-17 1.56741e-17 8.87426e-18 4.93501e-18 2.69551e-18 1.44606e-18 7.61925e-19 3.94294e-19 2.00403e-19 1.00037e-19 4.90444e-20 2.36151e-20 1.11676e-20 5.18685e-21 2.36602e-21 1.06e-21 4.66413e-22 2.01563e-22 8.55521e-23 3.56642e-23 1.46022e-23 5.87204e-24 2.31926e-24 8.99705e-25 3.42803e-25 1.28288e-25 4.71544e-26 1.70239e-26 6.03665e-27 2.10249e-27 7.19244e-28 2.41669e-28 7.97563e-29 2.58517e-29 8.22542e-30 2.5535e-30 7.1995e-31 0 
0 2.13068e-30 7.52745e-30 2.41388e-29 7.55232e-29 2.31963e-28 6.99799e-28 2.07379e-27 6.03665e-27 1.7261e-26 4.84811e-26 1.33757e-25 3.62487e-25 9.64945e-25 2.52315e-24 6.48052e-24 1.63494e-23 4.05152e-23 9.86175e-23 2.3578e-22 5.537e-22 1.27719e-21 2.89365e-21 6.43938e-21 1.4075e-20 3.02174e-20 6.37193e-20 1.31974e-19 2.68477e-19 5.36453e-19 1.05284e-18 2.02955e-18 3.84281e-18 7.14685e-18 1.30558e-17 2.34271e-17 4.12925e-17 7.14944e-17 1.216e-16 2.03174e-16 3.33498e-16 5.37808e-16 8.52104e-16 1.32652e-15 2.02917e-15 3.05029e-15 4.50624e-15 6.54305e-15 9.33865e-15 1.31032e-14 1.80766e-14 2.45226e-14 3.27189e-14 4.2943e-14 5.54544e-14 7.04738e-14 8.81613e-14 1.08595e-13 1.3175e-13 1.57492e-13 1.85562e-13 2.15589e-13 2.47097e-13 2.79527e-13 3.12272e-13 3.44702e-13 3.7621e-13 4.06237e-13 4.34307e-13 4.60049e-13 4.83204e-13 5.03637e-13 5.21325e-13 5.36345e-13 5.48856e-13 5.5908e-13 5.67276e-13 5.73722e-13 5.78696e-13 5.8246e-13 5.85256e-13 5.87293e-13 5.88749e-13 5.8977e-13 5.90472e-13 5.90947e-13 5.91261e-13 5.91465e-13 5.91596e-13 5.91677e-13 5.91727e-13 5.91758e-13 5.91775e-13 5.91786e-13 5.91792e-13 5.91795e-13 5.91797e-13 5.91798e-13 5.91798e-13 5.91799e-13 5.91799e-13 5.91799e-13 5.91799e-13 5.91799e-13 5.91799e-13 5.91799e-13 5.91799e-13 5.91799e-13 5.91799e-13 5.91799e-13 5.91799e-13 5.91799e-13 5.91799e-13 5.91799e-13 5.91799e-13 5.91799e-13 5.91799e-13 5.91799e-13 5.91799e-13 5.91799e-13 5.91799e-13 5.91799e-13 5.91799e-13 5.91799e-13 5.91799e-13 5.91799e-13 5.91799e-13 5.91799e-13 5.91799e-13 5.91799e-13 5.91799e-13 5.91799e-13 5.91799e-13 5.91799e-13 5.91799e-13 5.91799e-13 5.91799e-13 5.91799e-13 5.91799e-13 5.91799e-13 5.91799e-13 5.91799e-13 5.91799e-13 5.91799e-13 5.91799e-13 5.91799e-13 5.91799e-13 5.91799e-13 5.91799e-13 5.91799e-13 5.91799e-13 5.91799e-13 5.91799e-13 5.91799e-13 5.91799e-13 5.91799e-13 5.91799e-13 5.91798e-13 5.91798e-13 5.91797e-13 5.91795e-13 5.91792e-13 5.91786e-13 5.91775e-13 5.91758e-13 5.91727e-13 5.91677e-13 5.91596e-13 5.91465e-13 5.91261e-13 5.90947e-13 5.90472e-13 5.8977e-13 5.88749e-13 5.87293e-13 5.85256e-13 5.8246e-13 5.78696e-13 5.73722e-13 5.67276e-13 5.5908e-13 5.48856e-13 5.36345e-13 5.21325e-13 5.03637e-13 4.83204e-13 4.60049e-13 4.34307e-13 4.06237e-13 3.7621e-13 3.44702e-13 3.12272e-13 2.79527e-13 2.47097e-13 2.15589e-13 1.85562e-13 1.57492e-13 1.3175e-13 1.08595e-13 8.81613e-14 7.04738e-14 5.54544e-14 4.2943e-14 3.27189e-14 2.45226e-14 1.80766e-14 1.31032e-14 9.33865e-15 6.54305e-15 4.50624e-15 3.05029e-15 2.02917e-15 1.32652e-15 8.52104e-16 5.37808e-16 3.33498e-16 2.03174e-16 1.216e-16 7.14944e-17 4.12925e-17 2.34271e-17 1.30558e-17 7.14685e-18 3.84281e-18 2.02955e-18 1.05284e-18 5.36453e-19 2.68477e-19 1.31974e-19 6.37193e-20 3.02174e-20 1.4075e-20 6.43938e-21 2.89365e-21 1.27719e-21 5.537e-22 2.3578e-22 9.86175e-23 4.05152e-23 1.63494e-23 6.48052e-24 2.52315e-24 9.64945e-25 3.62487e-25 1.33757e-25 4.84811e-26 1.7261e-26 6.03665e-27 2.07379e-27 6.99799e-28 2.31963e-28 7.55232e-29 2.41388e-29 7.52745e-30 2.13068e-30 0 