<?xml version="1.0"?>
<VTKFile type="ImageData" version="0.1" byte_order="LittleEndian">
  <ImageData WholeExtent="0 255 0 255 0 0" Origin="0 0 0" Spacing="1 1 1">
  <Piece Extent="0 255 0 255 0 0">
    <PointData>
      <DataArray type="Float32" Name="scalar_data" format="ascii" >0 0 0 0 0 0 0 0 0 0 0 0 0 0 0 0 0 0 0 0 0 0 0 0 0 0 0 0 0 0 0 0 0 0 0 0 0 0 0 0 0 0 0 0 0 0 0 0 0 0 0 0 0 0 0 0 0 0 0 0 0 0 0 0 0 0 0 0 0 0 0 0 0 0 0 0 0 0 0 0 0 0 0 0 0 0 0 0 0 0 0 0 0 0 0 0 0 0 0 0 0 0 0 0 0 0 0 0 0 0 0 0 0 0 0 0 0 0 0 0 0 0 0 0 0 0 0 0 0 0 0 0 0 0 0 0 0 0 0 0 0 0 0 0 0 0 0 0 0 0 0 0 0 0 0 0 0 0 0 0 0 0 0 0 0 0 0 0 0 0 0 0 0 0 0 0 0 0 0 0 0 0 0 0 0 0 0 0 0 0 0 0 0 0 0 0 0 0 0 0 0 0 0 0 0 0 0 0 0 0 0 0 0 0 0 0 0 0 0 0 0 0 0 0 0 0 0 0 0 0 0 0 0 0 0 0 0 0 0 0 0 0 0 0 0 0 0 0 0 0 0 0 0 0 0 0 
0 2.25676e-19 5.33795e-19 1.03354e-18 1.8951e-18 3.40074e-18 6.0258e-18 1.05695e-17 1.83655e-17 3.16196e-17 5.39435e-17 9.11924e-17 1.52763e-16 2.53583e-16 4.17122e-16 6.79909e-16 1.0982e-15 1.75777e-15 2.78799e-15 4.382e-15 6.82507e-15 1.05341e-14 1.61121e-14 2.44212e-14 3.6682e-14 5.46024e-14 8.05469e-14 1.17752e-13 1.70601e-13 2.44956e-13 3.48579e-13 4.91615e-13 6.87179e-13 9.52017e-13 1.30725e-12 1.77921e-12 2.40025e-12 3.20968e-12 4.25458e-12 5.59058e-12 7.28246e-12 9.40454e-12 1.20408e-11 1.52844e-11 1.92371e-11 2.40079e-11 2.97109e-11 3.64629e-11 4.43804e-11 5.35755e-11 6.41518e-11 7.62002e-11 8.9794e-11 1.04984e-10 1.21795e-10 1.40221e-10 1.60223e-10 1.81727e-10 2.04625e-10 2.28772e-10 2.53992e-10 2.80078e-10 3.06803e-10 3.33917e-10 3.61163e-10 3.88277e-10 4.15002e-10 4.41088e-10 4.66308e-10 4.90455e-10 5.13353e-10 5.34857e-10 5.54859e-10 5.73285e-10 5.90096e-10 6.05286e-10 6.1888e-10 6.30928e-10 6.41504e-10 6.50699e-10 6.58617e-10 6.65369e-10 6.71072e-10 6.75843e-10 6.79796e-10 6.83039e-10 6.85675e-10 6.87797e-10 6.89489e-10 6.90825e-10 6.9187e-10 6.9268e-10 6.93301e-10 6.93773e-10 6.94128e-10 6.94393e-10 6.94588e-10 6.94731e-10 6.94835e-10 6.94909e-10 6.94962e-10 6.95e-10 6.95025e-10 6.95043e-10 6.95056e-10 6.95064e-10 6.95069e-10 6.95073e-10 6.95076e-10 6.95077e-10 6.95078e-10 6.95079e-10 6.95079e-10 6.9508e-10 6.9508e-10 6.9508e-10 6.9508e-10 6.9508e-10 6.9508e-10 6.9508e-10 6.9508e-10 6.9508e-10 6.9508e-10 6.9508e-10 6.9508e-10 6.9508e-10 6.9508e-10 6.9508e-10 6.9508e-10 6.9508e-10 6.9508e-10 6.9508e-10 6.9508e-10 6.9508e-10 6.9508e-10 6.9508e-10 6.9508e-10 6.9508e-10 6.9508e-10 6.9508e-10 6.9508e-10 6.9508e-10 6.9508e-10 6.95079e-10 6.95079e-10 6.95078e-10 6.95077e-10 6.95076e-10 6.95073e-10 6.95069e-10 6.95064e-10 6.95056e-10 6.95043e-10 6.95025e-10 6.95e-10 6.94962e-10 6.94909e-10 6.94835e-10 6.94731e-10 6.94588e-10 6.94393e-10 6.94128e-10 6.93773e-10 6.93301e-10 6.9268e-10 6.9187e-10 6.90825e-10 6.89489e-10 6.87797e-10 6.85675e-10 6.83039e-10 6.79796e-10 6.75843e-10 6.71072e-10 6.65369e-10 6.58617e-10 6.50699e-10 6.41504e-10 6.30928e-10 6.1888e-10 6.05286e-10 5.90096e-10 5.73285e-10 5.54859e-10 5.34857e-10 5.13353e-10 4.90455e-10 4.66308e-10 4.41088e-10 4.15002e-10 3.88277e-10 3.61163e-10 3.33917e-10 3.06803e-10 2.80078e-10 2.53992e-10 2.28772e-10 2.04625e-10 1.81727e-10 1.60223e-10 1.40221e-10 1.21795e-10 1.04984e-10 8.9794e-11 7.62002e-11 6.41518e-11 5.35755e-11 4.43804e-11 3.64629e-11 2.97109e-11 2.40079e-11 1.92371e-11 1.52844e-11 1.20408e-11 9.40454e-12 7.28246e-12 5.59058e-12 4.25458e-12 3.20968e-12 2.40025e-12 1.77921e-12 1.30725e-12 9.52017e-13 6.87179e-13 4.91615e-13 3.48579e-13 2.44956e-13 1.70601e-13 1.17752e-13 8.05469e-14 5.46024e-14 3.6682e-14 2.44212e-14 1.61121e-14 1.05341e-14 6.82507e-15 4.382e-15 2.78799e-15 1.75777e-15 1.0982e-15 6.79909e-16 4.17122e-16 2.53583e-16 1.52763e-16 9.11924e-17 5.39435e-17 3.16196e-17 1.83655e-17 1.05695e-17 6.0258e-18 3.40074e-18 1.8951e-18 1.03354e-18 5.33795e-19 2.25676e-19 0 
0 5.33795e-19 1.26231e-18 2.44332e-18 4.47845e-18 8.03344e-18 1.42291e-17 2.49488e-17 4.33347e-17 7.45812e-17 1.27191e-16 2.14942e-16 3.59939e-16 5.97286e-16 9.82157e-16 1.60039e-15 2.58416e-15 4.13489e-15 6.55631e-15 1.03017e-14 1.60405e-14 2.47506e-14 3.78457e-14 5.73476e-14 8.61162e-14 1.28154e-13 1.88999e-13 2.76231e-13 4.00111e-13 5.74364e-13 8.17149e-13 1.15221e-12 1.61021e-12 2.23033e-12 3.06194e-12 4.16658e-12 5.6199e-12 7.51374e-12 9.95809e-12 1.30829e-11 1.70394e-11 2.20012e-11 2.81643e-11 3.57462e-11 4.49846e-11 5.61335e-11 6.94592e-11 8.52345e-11 1.03731e-10 1.25209e-10 1.49912e-10 1.7805e-10 2.09795e-10 2.45265e-10 2.84517e-10 3.27537e-10 3.74235e-10 4.24438e-10 4.77891e-10 5.34259e-10 5.93129e-10 6.54022e-10 7.16402e-10 7.79691e-10 8.43287e-10 9.06577e-10 9.68957e-10 1.02985e-09 1.08872e-09 1.14509e-09 1.19854e-09 1.24874e-09 1.29544e-09 1.33846e-09 1.37771e-09 1.41318e-09 1.44493e-09 1.47307e-09 1.49777e-09 1.51925e-09 1.53774e-09 1.55352e-09 1.56685e-09 1.57799e-09 1.58723e-09 1.59481e-09 1.60098e-09 1.60594e-09 1.6099e-09 1.61302e-09 1.61546e-09 1.61736e-09 1.61881e-09 1.61992e-09 1.62075e-09 1.62137e-09 1.62183e-09 1.62216e-09 1.6224e-09 1.62258e-09 1.6227e-09 1.62279e-09 1.62285e-09 1.62289e-09 1.62292e-09 1.62294e-09 1.62295e-09 1.62296e-09 1.62297e-09 1.62297e-09 1.62297e-09 1.62298e-09 1.62298e-09 1.62298e-09 1.62298e-09 1.62298e-09 1.62298e-09 1.62298e-09 1.62298e-09 1.62298e-09 1.62298e-09 1.62298e-09 1.62298e-09 1.62298e-09 1.62298e-09 1.62298e-09 1.62298e-09 1.62298e-09 1.62298e-09 1.62298e-09 1.62298e-09 1.62298e-09 1.62298e-09 1.62298e-09 1.62298e-09 1.62298e-09 1.62298e-09 1.62298e-09 1.62298e-09 1.62298e-09 1.62298e-09 1.62298e-09 1.62298e-09 1.62298e-09 1.62298e-09 1.62297e-09 1.62297e-09 1.62297e-09 1.62296e-09 1.62295e-09 1.62294e-09 1.62292e-09 1.62289e-09 1.62285e-09 1.62279e-09 1.6227e-09 1.62258e-09 1.6224e-09 1.62216e-09 1.62183e-09 1.62137e-09 1.62075e-09 1.61992e-09 1.61881e-09 1.61736e-09 1.61546e-09 1.61302e-09 1.6099e-09 1.60594e-09 1.60098e-09 1.59481e-09 1.58723e-09 1.57799e-09 1.56685e-09 1.55352e-09 1.53774e-09 1.51925e-09 1.49777e-09 1.47307e-09 1.44493e-09 1.41318e-09 1.37771e-09 1.33846e-09 1.29544e-09 1.24874e-09 1.19854e-09 1.14509e-09 1.08872e-09 1.02985e-09 9.68957e-10 9.06577e-10 8.43287e-10 7.79691e-10 7.16402e-10 6.54022e-10 5.93129e-10 5.34259e-10 4.77891e-10 4.24438e-10 3.74235e-10 3.27537e-10 2.84517e-10 2.45265e-10 2.09795e-10 1.7805e-10 1.49912e-10 1.25209e-10 1.03731e-10 8.52345e-11 6.94592e-11 5.61335e-11 4.49846e-11 3.57462e-11 2.81643e-11 2.20012e-11 1.70394e-11 1.30829e-11 9.95809e-12 7.51374e-12 5.6199e-12 4.16658e-12 3.06194e-12 2.23033e-12 1.61021e-12 1.15221e-12 8.17149e-13 5.74364e-13 4.00111e-13 2.76231e-13 1.88999e-13 1.28154e-13 8.61162e-14 5.73476e-14 3.78457e-14 2.47506e-14 1.60405e-14 1.03017e-14 6.55631e-15 4.13489e-15 2.58416e-15 1.60039e-15 9.82157e-16 5.97286e-16 3.59939e-16 2.14942e-16 1.27191e-16 7.45812e-17 4.33347e-17 2.49488e-17 1.42291e-17 8.03344e-18 4.47845e-18 2.44332e-18 1.26231e-18 5.33795e-19 0 
0 1.03354e-18 2.44332e-18 4.72716e-18 8.66011e-18 1.55262e-17 2.74854e-17 4.81661e-17 8.36179e-17 1.43835e-16 2.45171e-16 4.14112e-16 6.93127e-16 1.14963e-15 1.88951e-15 3.07747e-15 4.96697e-15 7.94406e-15 1.25907e-14 1.9775e-14 3.07782e-14 4.74718e-14 7.25596e-14 1.09907e-13 1.6498e-13 2.45425e-13 3.61819e-13 5.28632e-13 7.65445e-13 1.09844e-12 1.56226e-12 2.20215e-12 3.07658e-12 4.26017e-12 5.84699e-12 7.95419e-12 1.07258e-11 1.43366e-11 1.89959e-11 2.49507e-11 3.24889e-11 4.19403e-11 5.36775e-11 6.81139e-11 8.57009e-11 1.06921e-10 1.3228e-10 1.62296e-10 1.97484e-10 2.38339e-10 2.85321e-10 3.38831e-10 3.99192e-10 4.66628e-10 5.41248e-10 6.23025e-10 7.11785e-10 8.07201e-10 9.08789e-10 1.01591e-09 1.12778e-09 1.24349e-09 1.36203e-09 1.48229e-09 1.60313e-09 1.72339e-09 1.84193e-09 1.95764e-09 2.06951e-09 2.17663e-09 2.27822e-09 2.37364e-09 2.4624e-09 2.54417e-09 2.61879e-09 2.68623e-09 2.74659e-09 2.8001e-09 2.84708e-09 2.88794e-09 2.92313e-09 2.95314e-09 2.9785e-09 2.99972e-09 3.01731e-09 3.03174e-09 3.04348e-09 3.05293e-09 3.06047e-09 3.06643e-09 3.07109e-09 3.0747e-09 3.07747e-09 3.07958e-09 3.08116e-09 3.08235e-09 3.08322e-09 3.08386e-09 3.08432e-09 3.08466e-09 3.08489e-09 3.08506e-09 3.08518e-09 3.08526e-09 3.08531e-09 3.08535e-09 3.08537e-09 3.08539e-09 3.0854e-09 3.08541e-09 3.08541e-09 3.08542e-09 3.08542e-09 3.08542e-09 3.08542e-09 3.08542e-09 3.08542e-09 3.08542e-09 3.08542e-09 3.08542e-09 3.08542e-09 3.08542e-09 3.08542e-09 3.08542e-09 3.08542e-09 3.08542e-09 3.08542e-09 3.08542e-09 3.08542e-09 3.08542e-09 3.08542e-09 3.08542e-09 3.08542e-09 3.08542e-09 3.08542e-09 3.08542e-09 3.08542e-09 3.08542e-09 3.08542e-09 3.08542e-09 3.08542e-09 3.08542e-09 3.08542e-09 3.08542e-09 3.08542e-09 3.08541e-09 3.08541e-09 3.0854e-09 3.08539e-09 3.08537e-09 3.08535e-09 3.08531e-09 3.08526e-09 3.08518e-09 3.08506e-09 3.08489e-09 3.08466e-09 3.08432e-09 3.08386e-09 3.08322e-09 3.08235e-09 3.08116e-09 3.07958e-09 3.07747e-09 3.0747e-09 3.07109e-09 3.06643e-09 3.06047e-09 3.05293e-09 3.04348e-09 3.03174e-09 3.01731e-09 2.99972e-09 2.9785e-09 2.95314e-09 2.92313e-09 2.88794e-09 2.84708e-09 2.8001e-09 2.74659e-09 2.68623e-09 2.61879e-09 2.54417e-09 2.4624e-09 2.37364e-09 2.27822e-09 2.17663e-09 2.06951e-09 1.95764e-09 1.84193e-09 1.72339e-09 1.60313e-09 1.48229e-09 1.36203e-09 1.24349e-09 1.12778e-09 1.01591e-09 9.08789e-10 8.07201e-10 7.11785e-10 6.23025e-10 5.41248e-10 4.66628e-10 3.99192e-10 3.38831e-10 2.85321e-10 2.38339e-10 1.97484e-10 1.62296e-10 1.3228e-10 1.06921e-10 8.57009e-11 6.81139e-11 5.36775e-11 4.19403e-11 3.24889e-11 2.49507e-11 1.89959e-11 1.43366e-11 1.07258e-11 7.95419e-12 5.84699e-12 4.26017e-12 3.07658e-12 2.20215e-12 1.56226e-12 1.09844e-12 7.65445e-13 5.28632e-13 3.61819e-13 2.45425e-13 1.6498e-13 1.09907e-13 7.25596e-14 4.74718e-14 3.07782e-14 1.9775e-14 1.25907e-14 7.94406e-15 4.96697e-15 3.07747e-15 1.88951e-15 1.14963e-15 6.93127e-16 4.14112e-16 2.45171e-16 1.43835e-16 8.36179e-17 4.81661e-17 2.74854e-17 1.55262e-17 8.66011e-18 4.72716e-18 2.44332e-18 1.03354e-18 0 
0 1.8951e-18 4.47845e-18 8.66011e-18 1.58559e-17 2.84095e-17 5.0261e-17 8.80243e-17 1.5272e-16 2.62545e-16 4.47252e-16 7.55005e-16 1.26299e-15 2.09365e-15 3.43923e-15 5.59854e-15 9.0312e-15 1.4437e-14 2.287e-14 3.59022e-14 5.58523e-14 8.61054e-14 1.3155e-13 1.99173e-13 2.98846e-13 4.44376e-13 6.54854e-13 9.56385e-13 1.38428e-12 1.98574e-12 2.82317e-12 3.9781e-12 5.55579e-12 7.69055e-12 1.05517e-11 1.43499e-11 1.93441e-11 2.58486e-11 3.42394e-11 4.49605e-11 5.85286e-11 7.55362e-11 9.66517e-11 1.22617e-10 1.54243e-10 1.92394e-10 2.37977e-10 2.9192e-10 3.55146e-10 4.28545e-10 5.12937e-10 6.09041e-10 7.17435e-10 8.3852e-10 9.72489e-10 1.11929e-09 1.27861e-09 1.44987e-09 1.6322e-09 1.82444e-09 2.02519e-09 2.23283e-09 2.44554e-09 2.66133e-09 2.87817e-09 3.09397e-09 3.30667e-09 3.51431e-09 3.71507e-09 3.90731e-09 4.08963e-09 4.26089e-09 4.42022e-09 4.56702e-09 4.70099e-09 4.82207e-09 4.93047e-09 5.02657e-09 5.11096e-09 5.18436e-09 5.24759e-09 5.30153e-09 5.34711e-09 5.38526e-09 5.41689e-09 5.44285e-09 5.46397e-09 5.48098e-09 5.49455e-09 5.50527e-09 5.51366e-09 5.52016e-09 5.52516e-09 5.52895e-09 5.53182e-09 5.53395e-09 5.53553e-09 5.53668e-09 5.53752e-09 5.53812e-09 5.53855e-09 5.53885e-09 5.53906e-09 5.53921e-09 5.53931e-09 5.53937e-09 5.53942e-09 5.53945e-09 5.53947e-09 5.53948e-09 5.53949e-09 5.5395e-09 5.5395e-09 5.5395e-09 5.5395e-09 5.5395e-09 5.5395e-09 5.53951e-09 5.53951e-09 5.53951e-09 5.53951e-09 5.53951e-09 5.53951e-09 5.53951e-09 5.53951e-09 5.53951e-09 5.53951e-09 5.53951e-09 5.53951e-09 5.53951e-09 5.53951e-09 5.53951e-09 5.53951e-09 5.53951e-09 5.53951e-09 5.53951e-09 5.53951e-09 5.53951e-09 5.53951e-09 5.5395e-09 5.5395e-09 5.5395e-09 5.5395e-09 5.5395e-09 5.5395e-09 5.53949e-09 5.53948e-09 5.53947e-09 5.53945e-09 5.53942e-09 5.53937e-09 5.53931e-09 5.53921e-09 5.53906e-09 5.53885e-09 5.53855e-09 5.53812e-09 5.53752e-09 5.53668e-09 5.53553e-09 5.53395e-09 5.53182e-09 5.52895e-09 5.52516e-09 5.52016e-09 5.51366e-09 5.50527e-09 5.49455e-09 5.48098e-09 5.46397e-09 5.44285e-09 5.41689e-09 5.38526e-09 5.34711e-09 5.30153e-09 5.24759e-09 5.18436e-09 5.11096e-09 5.02657e-09 4.93047e-09 4.82207e-09 4.70099e-09 4.56702e-09 4.42022e-09 4.26089e-09 4.08963e-09 3.90731e-09 3.71507e-09 3.51431e-09 3.30667e-09 3.09397e-09 2.87817e-09 2.66133e-09 2.44554e-09 2.23283e-09 2.02519e-09 1.82444e-09 1.6322e-09 1.44987e-09 1.27861e-09 1.11929e-09 9.72489e-10 8.3852e-10 7.17435e-10 6.09041e-10 5.12937e-10 4.28545e-10 3.55146e-10 2.9192e-10 2.37977e-10 1.92394e-10 1.54243e-10 1.22617e-10 9.66517e-11 7.55362e-11 5.85286e-11 4.49605e-11 3.42394e-11 2.58486e-11 1.93441e-11 1.43499e-11 1.05517e-11 7.69055e-12 5.55579e-12 3.9781e-12 2.82317e-12 1.98574e-12 1.38428e-12 9.56385e-13 6.54854e-13 4.44376e-13 2.98846e-13 1.99173e-13 1.3155e-13 8.61054e-14 5.58523e-14 3.59022e-14 2.287e-14 1.4437e-14 9.0312e-15 5.59854e-15 3.43923e-15 2.09365e-15 1.26299e-15 7.55005e-16 4.47252e-16 2.62545e-16 1.5272e-16 8.80243e-17 5.0261e-17 2.84095e-17 1.58559e-17 8.66011e-18 4.47845e-18 1.8951e-18 0 
0 3.40074e-18 8.03344e-18 1.55262e-17 2.84095e-17 5.08692e-17 8.99373e-17 1.57409e-16 2.72927e-16 4.68902e-16 7.98295e-16 1.34679e-15 2.2516e-15 3.73029e-15 6.12425e-15 9.96379e-15 1.60642e-14 2.56658e-14 4.06367e-14 6.37603e-14 9.9141e-14 1.52767e-13 2.33283e-13 3.53036e-13 5.29467e-13 7.86954e-13 1.15919e-12 1.69223e-12 2.44834e-12 3.51073e-12 4.98934e-12 7.02777e-12 9.81135e-12 1.35765e-11 1.86209e-11 2.53153e-11 3.41149e-11 4.55719e-11 6.0347e-11 7.92202e-11 1.03098e-10 1.33022e-10 1.70163e-10 2.15825e-10 2.71427e-10 3.38487e-10 4.18594e-10 5.13374e-10 6.24444e-10 7.53361e-10 9.01563e-10 1.07031e-09 1.2606e-09 1.47315e-09 1.70829e-09 1.96592e-09 2.24551e-09 2.54601e-09 2.8659e-09 3.20317e-09 3.55537e-09 3.91962e-09 4.29275e-09 4.67129e-09 5.05167e-09 5.43022e-09 5.80334e-09 6.1676e-09 6.51979e-09 6.85706e-09 7.17695e-09 7.47745e-09 7.75704e-09 8.01467e-09 8.24981e-09 8.46236e-09 8.65265e-09 8.8214e-09 8.9696e-09 9.09852e-09 9.20959e-09 9.30437e-09 9.38447e-09 9.45153e-09 9.50714e-09 9.5528e-09 9.58994e-09 9.61986e-09 9.64374e-09 9.66261e-09 9.67739e-09 9.68885e-09 9.69765e-09 9.70434e-09 9.70939e-09 9.71315e-09 9.71593e-09 9.71797e-09 9.71945e-09 9.72051e-09 9.72127e-09 9.7218e-09 9.72218e-09 9.72243e-09 9.72261e-09 9.72273e-09 9.72281e-09 9.72286e-09 9.7229e-09 9.72292e-09 9.72294e-09 9.72295e-09 9.72295e-09 9.72295e-09 9.72296e-09 9.72296e-09 9.72296e-09 9.72296e-09 9.72296e-09 9.72296e-09 9.72296e-09 9.72296e-09 9.72296e-09 9.72296e-09 9.72296e-09 9.72296e-09 9.72296e-09 9.72296e-09 9.72296e-09 9.72296e-09 9.72296e-09 9.72296e-09 9.72296e-09 9.72296e-09 9.72296e-09 9.72296e-09 9.72296e-09 9.72296e-09 9.72296e-09 9.72296e-09 9.72296e-09 9.72296e-09 9.72295e-09 9.72295e-09 9.72295e-09 9.72294e-09 9.72292e-09 9.7229e-09 9.72286e-09 9.72281e-09 9.72273e-09 9.72261e-09 9.72243e-09 9.72218e-09 9.7218e-09 9.72127e-09 9.72051e-09 9.71945e-09 9.71797e-09 9.71593e-09 9.71315e-09 9.70939e-09 9.70434e-09 9.69765e-09 9.68885e-09 9.67739e-09 9.66261e-09 9.64374e-09 9.61986e-09 9.58994e-09 9.5528e-09 9.50714e-09 9.45153e-09 9.38447e-09 9.30437e-09 9.20959e-09 9.09852e-09 8.9696e-09 8.8214e-09 8.65265e-09 8.46236e-09 8.24981e-09 8.01467e-09 7.75704e-09 7.47745e-09 7.17695e-09 6.85706e-09 6.51979e-09 6.1676e-09 5.80334e-09 5.43022e-09 5.05167e-09 4.67129e-09 4.29275e-09 3.91962e-09 3.55537e-09 3.20317e-09 2.8659e-09 2.54601e-09 2.24551e-09 1.96592e-09 1.70829e-09 1.47315e-09 1.2606e-09 1.07031e-09 9.01563e-10 7.53361e-10 6.24444e-10 5.13374e-10 4.18594e-10 3.38487e-10 2.71427e-10 2.15825e-10 1.70163e-10 1.33022e-10 1.03098e-10 7.92202e-11 6.0347e-11 4.55719e-11 3.41149e-11 2.53153e-11 1.86209e-11 1.35765e-11 9.81135e-12 7.02777e-12 4.98934e-12 3.51073e-12 2.44834e-12 1.69223e-12 1.15919e-12 7.86954e-13 5.29467e-13 3.53036e-13 2.33283e-13 1.52767e-13 9.9141e-14 6.37603e-14 4.06367e-14 2.56658e-14 1.60642e-14 9.96379e-15 6.12425e-15 3.73029e-15 2.2516e-15 1.34679e-15 7.98295e-16 4.68902e-16 2.72927e-16 1.57409e-16 8.99373e-17 5.08692e-17 2.84095e-17 1.55262e-17 8.03344e-18 3.40074e-18 0 
0 6.0258e-18 1.42291e-17 2.74854e-17 5.0261e-17 8.99373e-17 1.58906e-16 2.77937e-16 4.81598e-16 8.26885e-16 1.40688e-15 2.37207e-15 3.96334e-15 6.56232e-15 1.07676e-14 1.75084e-14 2.82123e-14 4.50507e-14 7.12912e-14 1.118e-13 1.7375e-13 2.67601e-13 4.08443e-13 6.1782e-13 9.26151e-13 1.37593e-12 2.02587e-12 2.95619e-12 4.27528e-12 6.12793e-12 8.70542e-12 1.22574e-11 1.7106e-11 2.3662e-11 3.24425e-11 4.40911e-11 5.93978e-11 7.93208e-11 1.05006e-10 1.37806e-10 1.79292e-10 2.31268e-10 2.95764e-10 3.75037e-10 4.71544e-10 5.87911e-10 7.26891e-10 8.91294e-10 1.08392e-09 1.30745e-09 1.56438e-09 1.85688e-09 2.18669e-09 2.55502e-09 2.96245e-09 3.4088e-09 3.89314e-09 4.41366e-09 4.96774e-09 5.55188e-09 6.16184e-09 6.79266e-09 7.43882e-09 8.09436e-09 8.75306e-09 9.40861e-09 1.00548e-08 1.06856e-08 1.12955e-08 1.18797e-08 1.24338e-08 1.29543e-08 1.34386e-08 1.3885e-08 1.42924e-08 1.46607e-08 1.49905e-08 1.5283e-08 1.554e-08 1.57635e-08 1.59561e-08 1.61205e-08 1.62595e-08 1.63759e-08 1.64724e-08 1.65517e-08 1.66162e-08 1.66681e-08 1.67096e-08 1.67424e-08 1.67681e-08 1.6788e-08 1.68033e-08 1.6815e-08 1.68238e-08 1.68303e-08 1.68352e-08 1.68387e-08 1.68413e-08 1.68432e-08 1.68445e-08 1.68454e-08 1.68461e-08 1.68465e-08 1.68468e-08 1.6847e-08 1.68472e-08 1.68473e-08 1.68473e-08 1.68474e-08 1.68474e-08 1.68474e-08 1.68474e-08 1.68474e-08 1.68474e-08 1.68474e-08 1.68474e-08 1.68474e-08 1.68474e-08 1.68474e-08 1.68474e-08 1.68474e-08 1.68474e-08 1.68474e-08 1.68474e-08 1.68474e-08 1.68474e-08 1.68474e-08 1.68474e-08 1.68474e-08 1.68474e-08 1.68474e-08 1.68474e-08 1.68474e-08 1.68474e-08 1.68474e-08 1.68474e-08 1.68474e-08 1.68474e-08 1.68474e-08 1.68474e-08 1.68474e-08 1.68474e-08 1.68474e-08 1.68474e-08 1.68474e-08 1.68474e-08 1.68473e-08 1.68473e-08 1.68472e-08 1.6847e-08 1.68468e-08 1.68465e-08 1.68461e-08 1.68454e-08 1.68445e-08 1.68432e-08 1.68413e-08 1.68387e-08 1.68352e-08 1.68303e-08 1.68238e-08 1.6815e-08 1.68033e-08 1.6788e-08 1.67681e-08 1.67424e-08 1.67096e-08 1.66681e-08 1.66162e-08 1.65517e-08 1.64724e-08 1.63759e-08 1.62595e-08 1.61205e-08 1.59561e-08 1.57635e-08 1.554e-08 1.5283e-08 1.49905e-08 1.46607e-08 1.42924e-08 1.3885e-08 1.34386e-08 1.29543e-08 1.24338e-08 1.18797e-08 1.12955e-08 1.06856e-08 1.00548e-08 9.40861e-09 8.75306e-09 8.09436e-09 7.43882e-09 6.79266e-09 6.16184e-09 5.55188e-09 4.96774e-09 4.41366e-09 3.89314e-09 3.4088e-09 2.96245e-09 2.55502e-09 2.18669e-09 1.85688e-09 1.56438e-09 1.30745e-09 1.08392e-09 8.91294e-10 7.26891e-10 5.87911e-10 4.71544e-10 3.75037e-10 2.95764e-10 2.31268e-10 1.79292e-10 1.37806e-10 1.05006e-10 7.93208e-11 5.93978e-11 4.40911e-11 3.24425e-11 2.3662e-11 1.7106e-11 1.22574e-11 8.70542e-12 6.12793e-12 4.27528e-12 2.95619e-12 2.02587e-12 1.37593e-12 9.26151e-13 6.1782e-13 4.08443e-13 2.67601e-13 1.7375e-13 1.118e-13 7.12912e-14 4.50507e-14 2.82123e-14 1.75084e-14 1.07676e-14 6.56232e-15 3.96334e-15 2.37207e-15 1.40688e-15 8.26885e-16 4.81598e-16 2.77937e-16 1.58906e-16 8.99373e-17 5.0261e-17 2.74854e-17 1.42291e-17 6.0258e-18 0 
0 1.05695e-17 2.49488e-17 4.81662e-17 8.80243e-17 1.57409e-16 2.77937e-16 4.85818e-16 8.41266e-16 1.44352e-15 2.45452e-15 4.13595e-15 6.90638e-15 1.14286e-14 1.87416e-14 3.04573e-14 4.90509e-14 7.82848e-14 1.23818e-13 1.94074e-13 3.01461e-13 4.64067e-13 7.07972e-13 1.07039e-12 1.60385e-12 2.38169e-12 3.50519e-12 5.11268e-12 7.39097e-12 1.05895e-11 1.50378e-11 2.11655e-11 2.9527e-11 4.08288e-11 5.59603e-11 7.60274e-11 1.02388e-10 1.36688e-10 1.80895e-10 2.37331e-10 3.08694e-10 3.98075e-10 5.0896e-10 6.45215e-10 8.11054e-10 1.01098e-09 1.2497e-09 1.53204e-09 1.86278e-09 2.24652e-09 2.68753e-09 3.1895e-09 3.75544e-09 4.38738e-09 5.08632e-09 5.85196e-09 6.68267e-09 7.57537e-09 8.52554e-09 9.52721e-09 1.05731e-08 1.16547e-08 1.27626e-08 1.38866e-08 1.50159e-08 1.61399e-08 1.72477e-08 1.83294e-08 1.93752e-08 2.03769e-08 2.13271e-08 2.22198e-08 2.30505e-08 2.38161e-08 2.45151e-08 2.5147e-08 2.5713e-08 2.62149e-08 2.66559e-08 2.70397e-08 2.73704e-08 2.76528e-08 2.78915e-08 2.80914e-08 2.82572e-08 2.83935e-08 2.85044e-08 2.85938e-08 2.86651e-08 2.87216e-08 2.87658e-08 2.88001e-08 2.88264e-08 2.88465e-08 2.88616e-08 2.88729e-08 2.88813e-08 2.88874e-08 2.88919e-08 2.88951e-08 2.88974e-08 2.8899e-08 2.89001e-08 2.89009e-08 2.89014e-08 2.89018e-08 2.8902e-08 2.89022e-08 2.89023e-08 2.89023e-08 2.89024e-08 2.89024e-08 2.89024e-08 2.89024e-08 2.89025e-08 2.89025e-08 2.89025e-08 2.89025e-08 2.89025e-08 2.89025e-08 2.89025e-08 2.89025e-08 2.89025e-08 2.89025e-08 2.89025e-08 2.89025e-08 2.89025e-08 2.89025e-08 2.89025e-08 2.89025e-08 2.89025e-08 2.89025e-08 2.89025e-08 2.89025e-08 2.89025e-08 2.89025e-08 2.89025e-08 2.89025e-08 2.89025e-08 2.89025e-08 2.89025e-08 2.89025e-08 2.89024e-08 2.89024e-08 2.89024e-08 2.89024e-08 2.89023e-08 2.89023e-08 2.89022e-08 2.8902e-08 2.89018e-08 2.89014e-08 2.89009e-08 2.89001e-08 2.8899e-08 2.88974e-08 2.88951e-08 2.88919e-08 2.88874e-08 2.88813e-08 2.88729e-08 2.88616e-08 2.88465e-08 2.88264e-08 2.88001e-08 2.87658e-08 2.87216e-08 2.86651e-08 2.85938e-08 2.85044e-08 2.83935e-08 2.82572e-08 2.80914e-08 2.78915e-08 2.76528e-08 2.73704e-08 2.70397e-08 2.66559e-08 2.62149e-08 2.5713e-08 2.5147e-08 2.45151e-08 2.38161e-08 2.30505e-08 2.22198e-08 2.13271e-08 2.03769e-08 1.93752e-08 1.83294e-08 1.72477e-08 1.61399e-08 1.50159e-08 1.38866e-08 1.27626e-08 1.16547e-08 1.05731e-08 9.52721e-09 8.52554e-09 7.57537e-09 6.68267e-09 5.85196e-09 5.08632e-09 4.38738e-09 3.75544e-09 3.1895e-09 2.68753e-09 2.24652e-09 1.86278e-09 1.53204e-09 1.2497e-09 1.01098e-09 8.11054e-10 6.45215e-10 5.0896e-10 3.98075e-10 3.08694e-10 2.37331e-10 1.80895e-10 1.36688e-10 1.02388e-10 7.60274e-11 5.59603e-11 4.08288e-11 2.9527e-11 2.11655e-11 1.50378e-11 1.05895e-11 7.39097e-12 5.11268e-12 3.50519e-12 2.38169e-12 1.60385e-12 1.07039e-12 7.07972e-13 4.64067e-13 3.01461e-13 1.94074e-13 1.23818e-13 7.82848e-14 4.90509e-14 3.04573e-14 1.87416e-14 1.14286e-14 6.90638e-15 4.13595e-15 2.45452e-15 1.44352e-15 8.41266e-16 4.85818e-16 2.77937e-16 1.57409e-16 8.80243e-17 4.81662e-17 2.49488e-17 1.05695e-17 0 
0 1.83655e-17 4.33347e-17 8.36179e-17 1.5272e-16 2.72927e-16 4.81598e-16 8.41266e-16 1.45586e-15 2.49655e-15 4.2425e-15 7.14449e-15 1.19232e-14 1.97191e-14 3.23189e-14 5.24929e-14 8.44933e-14 1.34779e-13 2.13061e-13 3.33785e-13 5.18223e-13 7.97361e-13 1.21587e-12 1.83743e-12 2.75193e-12 4.08477e-12 6.00908e-12 8.76119e-12 1.26602e-11 1.81319e-11 2.57385e-11 3.6213e-11 5.05008e-11 6.98061e-11 9.56442e-11 1.29899e-10 1.74883e-10 2.33397e-10 3.08789e-10 4.05009e-10 5.26645e-10 6.78954e-10 8.67858e-10 1.09993e-09 1.38232e-09 1.72268e-09 2.129e-09 2.60947e-09 3.1722e-09 3.825e-09 4.57509e-09 5.42876e-09 6.39105e-09 7.46546e-09 8.65361e-09 9.95502e-09 1.13669e-08 1.2884e-08 1.44987e-08 1.62008e-08 1.79779e-08 1.98156e-08 2.1698e-08 2.36076e-08 2.55264e-08 2.7436e-08 2.93183e-08 3.11561e-08 3.29332e-08 3.46353e-08 3.62499e-08 3.7767e-08 3.91789e-08 4.04803e-08 4.16685e-08 4.27429e-08 4.37052e-08 4.45588e-08 4.53089e-08 4.59617e-08 4.65245e-08 4.70049e-08 4.74113e-08 4.77516e-08 4.8034e-08 4.82661e-08 4.8455e-08 4.86073e-08 4.87289e-08 4.88252e-08 4.89005e-08 4.89591e-08 4.90041e-08 4.90383e-08 4.90641e-08 4.90834e-08 4.90977e-08 4.91082e-08 4.91158e-08 4.91213e-08 4.91252e-08 4.91279e-08 4.91299e-08 4.91312e-08 4.91321e-08 4.91327e-08 4.91331e-08 4.91334e-08 4.91336e-08 4.91337e-08 4.91338e-08 4.91339e-08 4.91339e-08 4.91339e-08 4.91339e-08 4.91339e-08 4.91339e-08 4.91339e-08 4.91339e-08 4.91339e-08 4.91339e-08 4.91339e-08 4.91339e-08 4.91339e-08 4.91339e-08 4.91339e-08 4.91339e-08 4.91339e-08 4.91339e-08 4.91339e-08 4.91339e-08 4.91339e-08 4.91339e-08 4.91339e-08 4.91339e-08 4.91339e-08 4.91339e-08 4.91339e-08 4.91339e-08 4.91339e-08 4.91339e-08 4.91339e-08 4.91339e-08 4.91339e-08 4.91339e-08 4.91338e-08 4.91337e-08 4.91336e-08 4.91334e-08 4.91331e-08 4.91327e-08 4.91321e-08 4.91312e-08 4.91299e-08 4.91279e-08 4.91252e-08 4.91213e-08 4.91158e-08 4.91082e-08 4.90977e-08 4.90834e-08 4.90641e-08 4.90383e-08 4.90041e-08 4.89591e-08 4.89005e-08 4.88252e-08 4.87289e-08 4.86073e-08 4.8455e-08 4.82661e-08 4.8034e-08 4.77516e-08 4.74113e-08 4.70049e-08 4.65245e-08 4.59617e-08 4.53089e-08 4.45588e-08 4.37052e-08 4.27429e-08 4.16685e-08 4.04803e-08 3.91789e-08 3.7767e-08 3.62499e-08 3.46353e-08 3.29332e-08 3.11561e-08 2.93183e-08 2.7436e-08 2.55264e-08 2.36076e-08 2.1698e-08 1.98156e-08 1.79779e-08 1.62008e-08 1.44987e-08 1.2884e-08 1.13669e-08 9.95502e-09 8.65361e-09 7.46546e-09 6.39105e-09 5.42876e-09 4.57509e-09 3.825e-09 3.1722e-09 2.60947e-09 2.129e-09 1.72268e-09 1.38232e-09 1.09993e-09 8.67858e-10 6.78954e-10 5.26645e-10 4.05009e-10 3.08789e-10 2.33397e-10 1.74883e-10 1.29899e-10 9.56442e-11 6.98061e-11 5.05008e-11 3.6213e-11 2.57385e-11 1.81319e-11 1.26602e-11 8.76119e-12 6.00908e-12 4.08477e-12 2.75193e-12 1.83743e-12 1.21587e-12 7.97361e-13 5.18223e-13 3.33785e-13 2.13061e-13 1.34779e-13 8.44933e-14 5.24929e-14 3.23189e-14 1.97191e-14 1.19232e-14 7.14449e-15 4.2425e-15 2.49655e-15 1.45586e-15 8.41266e-16 4.81598e-16 2.72927e-16 1.5272e-16 8.36179e-17 4.33347e-17 1.83655e-17 0 
0 3.16196e-17 7.45812e-17 1.43835e-16 2.62545e-16 4.68902e-16 8.26885e-16 1.44352e-15 2.49655e-15 4.27855e-15 7.26638e-15 1.22296e-14 2.03979e-14 3.37159e-14 5.52285e-14 8.96545e-14 1.44232e-13 2.29952e-13 3.63327e-13 5.68912e-13 8.82842e-13 1.35773e-12 2.06939e-12 3.12587e-12 4.67956e-12 6.94301e-12 1.02095e-11 1.48793e-11 2.14923e-11 3.07694e-11 4.3661e-11 6.14068e-11 8.56043e-11 1.18288e-10 1.62017e-10 2.19972e-10 2.96054e-10 3.94991e-10 5.2243e-10 6.85028e-10 8.90521e-10 1.14777e-09 1.46674e-09 1.85851e-09 2.33512e-09 2.90944e-09 3.59494e-09 4.40536e-09 5.35437e-09 6.45509e-09 7.71965e-09 9.15861e-09 1.07805e-08 1.2591e-08 1.4593e-08 1.67857e-08 1.91642e-08 2.17198e-08 2.44395e-08 2.73063e-08 3.02994e-08 3.33944e-08 3.65645e-08 3.97804e-08 4.30117e-08 4.62276e-08 4.93977e-08 5.24927e-08 5.54857e-08 5.83525e-08 6.10723e-08 6.36279e-08 6.60064e-08 6.8199e-08 7.02011e-08 7.20116e-08 7.36335e-08 7.50724e-08 7.6337e-08 7.74377e-08 7.83867e-08 7.91972e-08 7.98826e-08 8.0457e-08 8.09336e-08 8.13254e-08 8.16443e-08 8.19016e-08 8.21071e-08 8.22697e-08 8.23971e-08 8.2496e-08 8.25721e-08 8.26301e-08 8.26738e-08 8.27065e-08 8.27307e-08 8.27484e-08 8.27613e-08 8.27706e-08 8.27772e-08 8.27819e-08 8.27851e-08 8.27874e-08 8.2789e-08 8.279e-08 8.27907e-08 8.27912e-08 8.27915e-08 8.27917e-08 8.27919e-08 8.27919e-08 8.2792e-08 8.2792e-08 8.27921e-08 8.27921e-08 8.27921e-08 8.27921e-08 8.27921e-08 8.27921e-08 8.27921e-08 8.27921e-08 8.27921e-08 8.27921e-08 8.27921e-08 8.27921e-08 8.27921e-08 8.27921e-08 8.27921e-08 8.27921e-08 8.27921e-08 8.27921e-08 8.27921e-08 8.27921e-08 8.27921e-08 8.27921e-08 8.27921e-08 8.27921e-08 8.27921e-08 8.27921e-08 8.27921e-08 8.27921e-08 8.2792e-08 8.2792e-08 8.27919e-08 8.27919e-08 8.27917e-08 8.27915e-08 8.27912e-08 8.27907e-08 8.279e-08 8.2789e-08 8.27874e-08 8.27851e-08 8.27819e-08 8.27772e-08 8.27706e-08 8.27613e-08 8.27484e-08 8.27307e-08 8.27065e-08 8.26738e-08 8.26301e-08 8.25721e-08 8.2496e-08 8.23971e-08 8.22697e-08 8.21071e-08 8.19016e-08 8.16443e-08 8.13254e-08 8.09336e-08 8.0457e-08 7.98826e-08 7.91972e-08 7.83867e-08 7.74377e-08 7.6337e-08 7.50724e-08 7.36335e-08 7.20116e-08 7.02011e-08 6.8199e-08 6.60064e-08 6.36279e-08 6.10723e-08 5.83525e-08 5.54857e-08 5.24927e-08 4.93977e-08 4.62276e-08 4.30117e-08 3.97804e-08 3.65645e-08 3.33944e-08 3.02994e-08 2.73063e-08 2.44395e-08 2.17198e-08 1.91642e-08 1.67857e-08 1.4593e-08 1.2591e-08 1.07805e-08 9.15861e-09 7.71965e-09 6.45509e-09 5.35437e-09 4.40536e-09 3.59494e-09 2.90944e-09 2.33512e-09 1.85851e-09 1.46674e-09 1.14777e-09 8.90521e-10 6.85028e-10 5.2243e-10 3.94991e-10 2.96054e-10 2.19972e-10 1.62017e-10 1.18288e-10 8.56043e-11 6.14068e-11 4.3661e-11 3.07694e-11 2.14923e-11 1.48793e-11 1.02095e-11 6.94301e-12 4.67956e-12 3.12587e-12 2.06939e-12 1.35773e-12 8.82842e-13 5.68912e-13 3.63327e-13 2.29952e-13 1.44232e-13 8.96545e-14 5.52285e-14 3.37159e-14 2.03979e-14 1.22296e-14 7.26638e-15 4.27855e-15 2.49655e-15 1.44352e-15 8.26885e-16 4.68902e-16 2.62545e-16 1.43835e-16 7.45812e-17 3.16196e-17 0 