<?xml version="1.0"?>
<VTKFile type="ImageData" version="0.1" byte_order="LittleEndian">
  <ImageData WholeExtent="0 255 0 255 0 0" Origin="0 0 0" Spacing="1 1 1">
  <Piece Extent="0 255 0 255 0 0">
    <PointData>
      <DataArray type="Float32" Name="scalar_data" format="ascii" >0 0 0 0 0 0 0 0 0 0 0 0 0 0 0 0 0 0 0 0 0 0 0 0 0 0 0 0 0 0 0 0 0 0 0 0 0 0 0 0 0 0 0 0 0 0 0 0 0 0 0 0 0 0 0 0 0 0 0 0 0 0 0 0 0 0 0 0 0 0 0 0 0 0 0 0 0 0 0 0 0 0 0 0 0 0 0 0 0 0 0 0 0 0 0 0 0 0 0 0 0 0 0 0 0 0 0 0 0 0 0 0 0 0 0 0 0 0 0 0 0 0 0 0 0 0 0 0 0 0 0 0 0 0 0 0 0 0 0 0 0 0 0 0 0 0 0 0 0 0 0 0 0 0 0 0 0 0 0 0 0 0 0 0 0 0 0 0 0 0 0 0 0 0 0 0 0 0 0 0 0 0 0 0 0 0 0 0 0 0 0 0 0 0 0 0 0 0 0 0 0 0 0 0 0 0 0 0 0 0 0 0 0 0 0 0 0 0 0 0 0 0 0 0 0 0 0 0 0 0 0 0 0 0 0 0 0 0 0 0 0 0 0 0 0 0 0 0 0 0 0 0 0 0 0 0 
0 0 0 0 0 0 0 0 0 0 0 0 0 0 0 0 0 0 0 0 0 0 0 0 0 0 0 1.4013e-45 9.80909e-45 6.86636e-44 4.52619e-43 2.77597e-42 1.60028e-41 8.71019e-41 4.48145e-40 2.18134e-39 1.00521e-38 4.38836e-38 1.81596e-37 7.1268e-37 2.65379e-36 9.38002e-36 3.14824e-35 1.00371e-34 3.04057e-34 8.75458e-34 2.39644e-33 6.23821e-33 1.54464e-32 3.63901e-32 8.15914e-32 1.74157e-31 3.54011e-31 6.85547e-31 1.26529e-30 2.22692e-30 3.73974e-30 5.99679e-30 9.18998e-30 1.34735e-29 1.89215e-29 2.54904e-29 3.29989e-29 4.11346e-29 4.94909e-29 5.76266e-29 6.51351e-29 7.1704e-29 7.7152e-29 8.14355e-29 8.46287e-29 8.68857e-29 8.83985e-29 8.93602e-29 8.99399e-29 9.02714e-29 9.04513e-29 9.05439e-29 9.05891e-29 9.061e-29 9.06192e-29 9.06231e-29 9.06246e-29 9.06252e-29 9.06254e-29 9.06254e-29 9.06255e-29 9.06255e-29 9.06255e-29 9.06255e-29 9.06255e-29 9.06255e-29 9.06255e-29 9.06255e-29 9.06255e-29 9.06255e-29 9.06255e-29 9.06255e-29 9.06255e-29 9.06255e-29 9.06255e-29 9.06255e-29 9.06255e-29 9.06255e-29 9.06255e-29 9.06255e-29 9.06255e-29 9.06255e-29 9.06255e-29 9.06255e-29 9.06255e-29 9.06255e-29 9.06255e-29 9.06255e-29 9.06255e-29 9.06255e-29 9.06255e-29 9.06255e-29 9.06255e-29 9.06255e-29 9.06255e-29 9.06255e-29 9.06255e-29 9.06255e-29 9.06255e-29 9.06255e-29 9.06255e-29 9.06255e-29 9.06255e-29 9.06255e-29 9.06255e-29 9.06255e-29 9.06255e-29 9.06255e-29 9.06255e-29 9.06255e-29 9.06255e-29 9.06255e-29 9.06255e-29 9.06255e-29 9.06255e-29 9.06255e-29 9.06255e-29 9.06255e-29 9.06255e-29 9.06255e-29 9.06255e-29 9.06255e-29 9.06255e-29 9.06255e-29 9.06255e-29 9.06255e-29 9.06255e-29 9.06255e-29 9.06255e-29 9.06255e-29 9.06255e-29 9.06255e-29 9.06255e-29 9.06255e-29 9.06255e-29 9.06255e-29 9.06255e-29 9.06255e-29 9.06255e-29 9.06255e-29 9.06255e-29 9.06255e-29 9.06255e-29 9.06255e-29 9.06254e-29 9.06254e-29 9.06252e-29 9.06246e-29 9.06231e-29 9.06192e-29 9.061e-29 9.05891e-29 9.05439e-29 9.04513e-29 9.02714e-29 8.99399e-29 8.93602e-29 8.83985e-29 8.68857e-29 8.46287e-29 8.14355e-29 7.7152e-29 7.1704e-29 6.51351e-29 5.76266e-29 4.94909e-29 4.11346e-29 3.29989e-29 2.54904e-29 1.89215e-29 1.34735e-29 9.18998e-30 5.99679e-30 3.73974e-30 2.22692e-30 1.26529e-30 6.85547e-31 3.54011e-31 1.74157e-31 8.15914e-32 3.63901e-32 1.54464e-32 6.23821e-33 2.39644e-33 8.75458e-34 3.04057e-34 1.00371e-34 3.14824e-35 9.38002e-36 2.65379e-36 7.1268e-37 1.81596e-37 4.38836e-38 1.00521e-38 2.18134e-39 4.48145e-40 8.71019e-41 1.60028e-41 2.77597e-42 4.52619e-43 6.86636e-44 9.80909e-45 1.4013e-45 0 0 0 0 0 0 0 0 0 0 0 0 0 0 0 0 0 0 0 0 0 0 0 0 0 0 0 
0 0 0 0 0 0 0 0 0 0 0 0 0 0 0 0 0 0 0 0 0 0 0 0 0 0 1.4013e-45 1.68156e-44 1.20512e-43 8.07148e-43 5.0713e-42 3.00382e-41 1.68069e-40 8.89442e-40 4.45556e-39 2.11426e-38 9.50979e-38 4.0569e-37 1.64231e-36 6.31188e-36 2.30402e-35 7.99109e-35 2.63429e-34 8.25649e-34 2.46107e-33 6.97855e-33 1.8829e-32 4.83521e-32 1.18204e-31 2.75164e-31 6.10099e-31 1.28881e-30 2.59473e-30 4.98052e-30 9.11846e-30 1.59314e-29 2.65786e-29 4.2371e-29 6.46005e-29 9.42925e-29 1.31923e-28 1.77173e-28 2.28794e-28 2.84662e-28 3.42021e-28 3.97889e-28 4.4951e-28 4.9476e-28 5.32391e-28 5.62083e-28 5.84312e-28 6.00105e-28 6.10752e-28 6.17565e-28 6.21703e-28 6.24088e-28 6.25394e-28 6.26073e-28 6.26408e-28 6.26565e-28 6.26635e-28 6.26664e-28 6.26676e-28 6.26681e-28 6.26682e-28 6.26683e-28 6.26683e-28 6.26683e-28 6.26683e-28 6.26683e-28 6.26683e-28 6.26683e-28 6.26683e-28 6.26683e-28 6.26683e-28 6.26683e-28 6.26683e-28 6.26683e-28 6.26683e-28 6.26683e-28 6.26683e-28 6.26683e-28 6.26683e-28 6.26683e-28 6.26683e-28 6.26683e-28 6.26683e-28 6.26683e-28 6.26683e-28 6.26683e-28 6.26683e-28 6.26683e-28 6.26683e-28 6.26683e-28 6.26683e-28 6.26683e-28 6.26683e-28 6.26683e-28 6.26683e-28 6.26683e-28 6.26683e-28 6.26683e-28 6.26683e-28 6.26683e-28 6.26683e-28 6.26683e-28 6.26683e-28 6.26683e-28 6.26683e-28 6.26683e-28 6.26683e-28 6.26683e-28 6.26683e-28 6.26683e-28 6.26683e-28 6.26683e-28 6.26683e-28 6.26683e-28 6.26683e-28 6.26683e-28 6.26683e-28 6.26683e-28 6.26683e-28 6.26683e-28 6.26683e-28 6.26683e-28 6.26683e-28 6.26683e-28 6.26683e-28 6.26683e-28 6.26683e-28 6.26683e-28 6.26683e-28 6.26683e-28 6.26683e-28 6.26683e-28 6.26683e-28 6.26683e-28 6.26683e-28 6.26683e-28 6.26683e-28 6.26683e-28 6.26683e-28 6.26683e-28 6.26683e-28 6.26683e-28 6.26683e-28 6.26683e-28 6.26683e-28 6.26683e-28 6.26683e-28 6.26682e-28 6.26681e-28 6.26676e-28 6.26664e-28 6.26635e-28 6.26565e-28 6.26408e-28 6.26073e-28 6.25394e-28 6.24088e-28 6.21703e-28 6.17565e-28 6.10752e-28 6.00105e-28 5.84312e-28 5.62083e-28 5.32391e-28 4.9476e-28 4.4951e-28 3.97889e-28 3.42021e-28 2.84662e-28 2.28794e-28 1.77173e-28 1.31923e-28 9.42925e-29 6.46005e-29 4.2371e-29 2.65786e-29 1.59314e-29 9.11846e-30 4.98052e-30 2.59473e-30 1.28881e-30 6.10099e-31 2.75164e-31 1.18204e-31 4.83521e-32 1.8829e-32 6.97855e-33 2.46107e-33 8.25649e-34 2.63429e-34 7.99109e-35 2.30402e-35 6.31188e-36 1.64231e-36 4.0569e-37 9.50979e-38 2.11426e-38 4.45556e-39 8.89442e-40 1.68069e-40 3.00382e-41 5.0713e-42 8.07148e-43 1.20512e-43 1.68156e-44 1.4013e-45 0 0 0 0 0 0 0 0 0 0 0 0 0 0 0 0 0 0 0 0 0 0 0 0 0 0 
0 0 0 0 0 0 0 0 0 0 0 0 0 0 0 0 0 0 0 0 0 0 0 0 0 2.8026e-45 2.66247e-44 2.00386e-43 1.36907e-42 8.81136e-42 5.3545e-41 3.07658e-40 1.67278e-39 8.61377e-39 4.20391e-38 1.94584e-37 8.54695e-37 3.56451e-36 1.41215e-35 5.31665e-35 1.90302e-34 6.4781e-34 2.0979e-33 6.46521e-33 1.8965e-32 5.29666e-32 1.40875e-31 3.56899e-31 8.61464e-31 1.98158e-30 4.3449e-30 9.08368e-30 1.81132e-29 3.44618e-29 6.25854e-29 1.08547e-28 1.79899e-28 2.85113e-28 4.32459e-28 6.28424e-28 8.75909e-28 1.17268e-27 1.51058e-27 1.87584e-27 2.25071e-27 2.61597e-27 2.95387e-27 3.25064e-27 3.49813e-27 3.69409e-27 3.84144e-27 3.94665e-27 4.018e-27 4.06396e-27 4.09209e-27 4.10844e-27 4.11746e-27 4.1222e-27 4.12457e-27 4.12569e-27 4.12619e-27 4.12641e-27 4.1265e-27 4.12653e-27 4.12654e-27 4.12655e-27 4.12655e-27 4.12655e-27 4.12655e-27 4.12655e-27 4.12655e-27 4.12655e-27 4.12655e-27 4.12655e-27 4.12655e-27 4.12655e-27 4.12655e-27 4.12655e-27 4.12655e-27 4.12655e-27 4.12655e-27 4.12655e-27 4.12655e-27 4.12655e-27 4.12655e-27 4.12655e-27 4.12655e-27 4.12655e-27 4.12655e-27 4.12655e-27 4.12655e-27 4.12655e-27 4.12655e-27 4.12655e-27 4.12655e-27 4.12655e-27 4.12655e-27 4.12655e-27 4.12655e-27 4.12655e-27 4.12655e-27 4.12655e-27 4.12655e-27 4.12655e-27 4.12655e-27 4.12655e-27 4.12655e-27 4.12655e-27 4.12655e-27 4.12655e-27 4.12655e-27 4.12655e-27 4.12655e-27 4.12655e-27 4.12655e-27 4.12655e-27 4.12655e-27 4.12655e-27 4.12655e-27 4.12655e-27 4.12655e-27 4.12655e-27 4.12655e-27 4.12655e-27 4.12655e-27 4.12655e-27 4.12655e-27 4.12655e-27 4.12655e-27 4.12655e-27 4.12655e-27 4.12655e-27 4.12655e-27 4.12655e-27 4.12655e-27 4.12655e-27 4.12655e-27 4.12655e-27 4.12655e-27 4.12655e-27 4.12655e-27 4.12655e-27 4.12655e-27 4.12655e-27 4.12655e-27 4.12655e-27 4.12655e-27 4.12655e-27 4.12655e-27 4.12655e-27 4.12655e-27 4.12654e-27 4.12653e-27 4.1265e-27 4.12641e-27 4.12619e-27 4.12569e-27 4.12457e-27 4.1222e-27 4.11746e-27 4.10844e-27 4.09209e-27 4.06396e-27 4.018e-27 3.94665e-27 3.84144e-27 3.69409e-27 3.49813e-27 3.25064e-27 2.95387e-27 2.61597e-27 2.25071e-27 1.87584e-27 1.51058e-27 1.17268e-27 8.75909e-28 6.28424e-28 4.32459e-28 2.85113e-28 1.79899e-28 1.08547e-28 6.25854e-29 3.44618e-29 1.81132e-29 9.08368e-30 4.3449e-30 1.98158e-30 8.61464e-31 3.56899e-31 1.40875e-31 5.29666e-32 1.8965e-32 6.46521e-33 2.0979e-33 6.4781e-34 1.90302e-34 5.31665e-35 1.41215e-35 3.56451e-36 8.54695e-37 1.94584e-37 4.20391e-38 8.61377e-39 1.67278e-39 3.07658e-40 5.3545e-41 8.81136e-42 1.36907e-42 2.00386e-43 2.66247e-44 2.8026e-45 0 0 0 0 0 0 0 0 0 0 0 0 0 0 0 0 0 0 0 0 0 0 0 0 0 
0 0 0 0 0 0 0 0 0 0 0 0 0 0 0 0 0 0 0 0 0 0 0 0 4.2039e-45 4.2039e-44 3.18095e-43 2.22106e-42 1.46646e-41 9.14123e-41 5.39019e-40 3.00919e-39 1.59183e-38 7.98491e-38 3.80071e-37 1.71768e-36 7.37463e-36 3.00933e-35 1.16768e-34 4.30993e-34 1.51379e-33 5.06113e-33 1.61117e-32 4.885e-32 1.41098e-31 3.88336e-31 1.01865e-30 2.54719e-30 6.07314e-30 1.38096e-29 2.99551e-29 6.2001e-29 1.2249e-28 2.31063e-28 4.1636e-28 7.17021e-28 1.18079e-27 1.86076e-27 2.80836e-27 4.06338e-27 5.64295e-27 7.53208e-27 9.67889e-27 1.19969e-26 1.4375e-26 1.66931e-26 1.88399e-26 2.0729e-26 2.23086e-26 2.35636e-26 2.45112e-26 2.51912e-26 2.56549e-26 2.59556e-26 2.61409e-26 2.62495e-26 2.631e-26 2.6342e-26 2.63581e-26 2.63659e-26 2.63694e-26 2.63709e-26 2.63716e-26 2.63718e-26 2.63719e-26 2.63719e-26 2.6372e-26 2.6372e-26 2.6372e-26 2.6372e-26 2.6372e-26 2.6372e-26 2.6372e-26 2.6372e-26 2.6372e-26 2.6372e-26 2.6372e-26 2.6372e-26 2.6372e-26 2.6372e-26 2.6372e-26 2.6372e-26 2.6372e-26 2.6372e-26 2.6372e-26 2.6372e-26 2.6372e-26 2.6372e-26 2.6372e-26 2.6372e-26 2.6372e-26 2.6372e-26 2.6372e-26 2.6372e-26 2.6372e-26 2.6372e-26 2.6372e-26 2.6372e-26 2.6372e-26 2.6372e-26 2.6372e-26 2.6372e-26 2.6372e-26 2.6372e-26 2.6372e-26 2.6372e-26 2.6372e-26 2.6372e-26 2.6372e-26 2.6372e-26 2.6372e-26 2.6372e-26 2.6372e-26 2.6372e-26 2.6372e-26 2.6372e-26 2.6372e-26 2.6372e-26 2.6372e-26 2.6372e-26 2.6372e-26 2.6372e-26 2.6372e-26 2.6372e-26 2.6372e-26 2.6372e-26 2.6372e-26 2.6372e-26 2.6372e-26 2.6372e-26 2.6372e-26 2.6372e-26 2.6372e-26 2.6372e-26 2.6372e-26 2.6372e-26 2.6372e-26 2.6372e-26 2.6372e-26 2.6372e-26 2.6372e-26 2.6372e-26 2.6372e-26 2.6372e-26 2.6372e-26 2.6372e-26 2.6372e-26 2.6372e-26 2.6372e-26 2.6372e-26 2.63719e-26 2.63719e-26 2.63718e-26 2.63716e-26 2.63709e-26 2.63694e-26 2.63659e-26 2.63581e-26 2.6342e-26 2.631e-26 2.62495e-26 2.61409e-26 2.59556e-26 2.56549e-26 2.51912e-26 2.45112e-26 2.35636e-26 2.23086e-26 2.0729e-26 1.88399e-26 1.66931e-26 1.4375e-26 1.19969e-26 9.67889e-27 7.53208e-27 5.64295e-27 4.06338e-27 2.80836e-27 1.86076e-27 1.18079e-27 7.17021e-28 4.1636e-28 2.31063e-28 1.2249e-28 6.2001e-29 2.99551e-29 1.38096e-29 6.07314e-30 2.54719e-30 1.01865e-30 3.88336e-31 1.41098e-31 4.885e-32 1.61117e-32 5.06113e-33 1.51379e-33 4.30993e-34 1.16768e-34 3.00933e-35 7.37463e-36 1.71768e-36 3.80071e-37 7.98491e-38 1.59183e-38 3.00919e-39 5.39019e-40 9.14123e-41 1.46646e-41 2.22106e-42 3.18095e-43 4.2039e-44 4.2039e-45 0 0 0 0 0 0 0 0 0 0 0 0 0 0 0 0 0 0 0 0 0 0 0 0 
0 0 0 0 0 0 0 0 0 0 0 0 0 0 0 0 0 0 0 0 0 0 0 5.60519e-45 6.16571e-44 4.82047e-43 3.45981e-42 2.33947e-41 1.49527e-40 9.04346e-40 5.1808e-39 2.81366e-38 1.44974e-37 7.09161e-37 3.29539e-36 1.45551e-35 6.1135e-35 2.44299e-34 9.2915e-34 3.36465e-33 1.16045e-32 3.81303e-32 1.19396e-31 3.5636e-31 1.01407e-30 2.75181e-30 7.12243e-30 1.75868e-29 4.14368e-29 9.31794e-29 2.00028e-28 4.10029e-28 8.02827e-28 1.50199e-27 2.68611e-27 4.59418e-27 7.51914e-27 1.17843e-26 1.76999e-26 2.55032e-26 3.5292e-26 4.69692e-26 6.0215e-26 7.45014e-26 8.91527e-26 1.03439e-25 1.16685e-25 1.28362e-25 1.38151e-25 1.45954e-25 1.5187e-25 1.56135e-25 1.5906e-25 1.60968e-25 1.62152e-25 1.62851e-25 1.63244e-25 1.63454e-25 1.63561e-25 1.63613e-25 1.63636e-25 1.63647e-25 1.63651e-25 1.63653e-25 1.63654e-25 1.63654e-25 1.63654e-25 1.63654e-25 1.63654e-25 1.63654e-25 1.63654e-25 1.63654e-25 1.63654e-25 1.63654e-25 1.63654e-25 1.63654e-25 1.63654e-25 1.63654e-25 1.63654e-25 1.63654e-25 1.63654e-25 1.63654e-25 1.63654e-25 1.63654e-25 1.63654e-25 1.63654e-25 1.63654e-25 1.63654e-25 1.63654e-25 1.63654e-25 1.63654e-25 1.63654e-25 1.63654e-25 1.63654e-25 1.63654e-25 1.63654e-25 1.63654e-25 1.63654e-25 1.63654e-25 1.63654e-25 1.63654e-25 1.63654e-25 1.63654e-25 1.63654e-25 1.63654e-25 1.63654e-25 1.63654e-25 1.63654e-25 1.63654e-25 1.63654e-25 1.63654e-25 1.63654e-25 1.63654e-25 1.63654e-25 1.63654e-25 1.63654e-25 1.63654e-25 1.63654e-25 1.63654e-25 1.63654e-25 1.63654e-25 1.63654e-25 1.63654e-25 1.63654e-25 1.63654e-25 1.63654e-25 1.63654e-25 1.63654e-25 1.63654e-25 1.63654e-25 1.63654e-25 1.63654e-25 1.63654e-25 1.63654e-25 1.63654e-25 1.63654e-25 1.63654e-25 1.63654e-25 1.63654e-25 1.63654e-25 1.63654e-25 1.63654e-25 1.63654e-25 1.63654e-25 1.63654e-25 1.63654e-25 1.63654e-25 1.63654e-25 1.63654e-25 1.63654e-25 1.63654e-25 1.63654e-25 1.63653e-25 1.63651e-25 1.63647e-25 1.63636e-25 1.63613e-25 1.63561e-25 1.63454e-25 1.63244e-25 1.62851e-25 1.62152e-25 1.60968e-25 1.5906e-25 1.56135e-25 1.5187e-25 1.45954e-25 1.38151e-25 1.28362e-25 1.16685e-25 1.03439e-25 8.91527e-26 7.45014e-26 6.0215e-26 4.69692e-26 3.5292e-26 2.55032e-26 1.76999e-26 1.17843e-26 7.51914e-27 4.59418e-27 2.68611e-27 1.50199e-27 8.02827e-28 4.10029e-28 2.00028e-28 9.31794e-29 4.14368e-29 1.75868e-29 7.12243e-30 2.75181e-30 1.01407e-30 3.5636e-31 1.19396e-31 3.81303e-32 1.16045e-32 3.36465e-33 9.2915e-34 2.44299e-34 6.1135e-35 1.45551e-35 3.29539e-36 7.09161e-37 1.44974e-37 2.81366e-38 5.1808e-39 9.04346e-40 1.49527e-40 2.33947e-41 3.45981e-42 4.82047e-43 6.16571e-44 5.60519e-45 0 0 0 0 0 0 0 0 0 0 0 0 0 0 0 0 0 0 0 0 0 0 0 
0 0 0 0 0 0 0 0 0 0 0 0 0 0 0 0 0 0 0 0 0 1.4013e-45 9.80909e-45 9.10844e-44 7.03452e-43 5.16939e-42 3.58004e-41 2.34447e-40 1.45358e-39 8.5404e-39 4.75917e-38 2.51729e-37 1.26469e-36 6.03886e-36 2.74216e-35 1.18473e-34 4.87223e-34 1.9081e-33 7.11865e-33 2.53083e-32 8.57678e-32 2.77141e-31 8.5408e-31 2.51082e-30 7.04278e-30 1.88525e-29 4.81698e-29 1.17502e-28 2.73695e-28 6.08878e-28 1.29401e-27 2.62784e-27 5.10086e-27 9.46721e-27 1.68078e-26 2.85571e-26 4.64606e-26 7.24294e-26 1.08282e-25 1.55391e-25 2.143e-25 2.84399e-25 3.63773e-25 4.49292e-25 5.36964e-25 6.22483e-25 7.01857e-25 7.71956e-25 8.30865e-25 8.77974e-25 9.13827e-25 9.39795e-25 9.57699e-25 9.69448e-25 9.76789e-25 9.81155e-25 9.83628e-25 9.84962e-25 9.85647e-25 9.85982e-25 9.86138e-25 9.86208e-25 9.86237e-25 9.86249e-25 9.86254e-25 9.86255e-25 9.86256e-25 9.86256e-25 9.86256e-25 9.86256e-25 9.86256e-25 9.86256e-25 9.86256e-25 9.86256e-25 9.86256e-25 9.86256e-25 9.86256e-25 9.86256e-25 9.86256e-25 9.86256e-25 9.86256e-25 9.86256e-25 9.86256e-25 9.86256e-25 9.86256e-25 9.86256e-25 9.86256e-25 9.86256e-25 9.86256e-25 9.86256e-25 9.86256e-25 9.86256e-25 9.86256e-25 9.86256e-25 9.86256e-25 9.86256e-25 9.86256e-25 9.86256e-25 9.86256e-25 9.86256e-25 9.86256e-25 9.86256e-25 9.86256e-25 9.86256e-25 9.86256e-25 9.86256e-25 9.86256e-25 9.86256e-25 9.86256e-25 9.86256e-25 9.86256e-25 9.86256e-25 9.86256e-25 9.86256e-25 9.86256e-25 9.86256e-25 9.86256e-25 9.86256e-25 9.86256e-25 9.86256e-25 9.86256e-25 9.86256e-25 9.86256e-25 9.86256e-25 9.86256e-25 9.86256e-25 9.86256e-25 9.86256e-25 9.86256e-25 9.86256e-25 9.86256e-25 9.86256e-25 9.86256e-25 9.86256e-25 9.86256e-25 9.86256e-25 9.86256e-25 9.86256e-25 9.86256e-25 9.86256e-25 9.86256e-25 9.86256e-25 9.86256e-25 9.86256e-25 9.86256e-25 9.86256e-25 9.86256e-25 9.86256e-25 9.86256e-25 9.86256e-25 9.86255e-25 9.86254e-25 9.86249e-25 9.86237e-25 9.86208e-25 9.86138e-25 9.85982e-25 9.85647e-25 9.84962e-25 9.83628e-25 9.81155e-25 9.76789e-25 9.69448e-25 9.57699e-25 9.39795e-25 9.13827e-25 8.77974e-25 8.30865e-25 7.71956e-25 7.01857e-25 6.22483e-25 5.36964e-25 4.49292e-25 3.63773e-25 2.84399e-25 2.143e-25 1.55391e-25 1.08282e-25 7.24294e-26 4.64606e-26 2.85571e-26 1.68078e-26 9.46721e-27 5.10086e-27 2.62784e-27 1.29401e-27 6.08878e-28 2.73695e-28 1.17502e-28 4.81698e-29 1.88525e-29 7.04278e-30 2.51082e-30 8.5408e-31 2.77141e-31 8.57678e-32 2.53083e-32 7.11865e-33 1.9081e-33 4.87223e-34 1.18473e-34 2.74216e-35 6.03886e-36 1.26469e-36 2.51729e-37 4.75917e-38 8.5404e-39 1.45358e-39 2.34447e-40 3.58004e-41 5.16939e-42 7.03452e-43 9.10844e-44 9.80909e-45 1.4013e-45 0 0 0 0 0 0 0 0 0 0 0 0 0 0 0 0 0 0 0 0 0 
0 0 0 0 0 0 0 0 0 0 0 0 0 0 0 0 0 0 0 0 1.4013e-45 1.54143e-44 1.24716e-43 9.87915e-43 7.41287e-42 5.25529e-41 3.52481e-40 2.23917e-39 1.34856e-38 7.70662e-38 4.18218e-37 2.15672e-36 1.05758e-35 4.93413e-35 2.19134e-34 9.26855e-34 3.73508e-33 1.43462e-32 5.25376e-32 1.83499e-31 6.11424e-31 1.94405e-30 5.89966e-30 1.70919e-29 4.72807e-29 1.24907e-28 3.15196e-28 7.59874e-28 1.75047e-27 3.85395e-27 8.11139e-27 1.63242e-26 3.14224e-26 5.7872e-26 1.02021e-25 1.72232e-25 2.78598e-25 4.32094e-25 6.43072e-25 9.19252e-25 1.26354e-24 1.67226e-24 2.13425e-24 2.63151e-24 3.14111e-24 3.63837e-24 4.10036e-24 4.50908e-24 4.85337e-24 5.12955e-24 5.34052e-24 5.49402e-24 5.60039e-24 5.6706e-24 5.71475e-24 5.7412e-24 5.75629e-24 5.76451e-24 5.76876e-24 5.77087e-24 5.77186e-24 5.7723e-24 5.77249e-24 5.77257e-24 5.7726e-24 5.77261e-24 5.77262e-24 5.77262e-24 5.77262e-24 5.77262e-24 5.77262e-24 5.77262e-24 5.77262e-24 5.77262e-24 5.77262e-24 5.77262e-24 5.77262e-24 5.77262e-24 5.77262e-24 5.77262e-24 5.77262e-24 5.77262e-24 5.77262e-24 5.77262e-24 5.77262e-24 5.77262e-24 5.77262e-24 5.77262e-24 5.77262e-24 5.77262e-24 5.77262e-24 5.77262e-24 5.77262e-24 5.77262e-24 5.77262e-24 5.77262e-24 5.77262e-24 5.77262e-24 5.77262e-24 5.77262e-24 5.77262e-24 5.77262e-24 5.77262e-24 5.77262e-24 5.77262e-24 5.77262e-24 5.77262e-24 5.77262e-24 5.77262e-24 5.77262e-24 5.77262e-24 5.77262e-24 5.77262e-24 5.77262e-24 5.77262e-24 5.77262e-24 5.77262e-24 5.77262e-24 5.77262e-24 5.77262e-24 5.77262e-24 5.77262e-24 5.77262e-24 5.77262e-24 5.77262e-24 5.77262e-24 5.77262e-24 5.77262e-24 5.77262e-24 5.77262e-24 5.77262e-24 5.77262e-24 5.77262e-24 5.77262e-24 5.77262e-24 5.77262e-24 5.77262e-24 5.77262e-24 5.77262e-24 5.77262e-24 5.77262e-24 5.77262e-24 5.77262e-24 5.77262e-24 5.77262e-24 5.77262e-24 5.77262e-24 5.77262e-24 5.77262e-24 5.77262e-24 5.77261e-24 5.7726e-24 5.77257e-24 5.77249e-24 5.7723e-24 5.77186e-24 5.77087e-24 5.76876e-24 5.76451e-24 5.75629e-24 5.7412e-24 5.71475e-24 5.6706e-24 5.60039e-24 5.49402e-24 5.34052e-24 5.12955e-24 4.85337e-24 4.50908e-24 4.10036e-24 3.63837e-24 3.14111e-24 2.63151e-24 2.13425e-24 1.67226e-24 1.26354e-24 9.19252e-25 6.43072e-25 4.32094e-25 2.78598e-25 1.72232e-25 1.02021e-25 5.7872e-26 3.14224e-26 1.63242e-26 8.11139e-27 3.85395e-27 1.75047e-27 7.59874e-28 3.15196e-28 1.24907e-28 4.72807e-29 1.70919e-29 5.89966e-30 1.94405e-30 6.11424e-31 1.83499e-31 5.25376e-32 1.43462e-32 3.73508e-33 9.26855e-34 2.19134e-34 4.93413e-35 1.05758e-35 2.15672e-36 4.18218e-37 7.70662e-38 1.34856e-38 2.23917e-39 3.52481e-40 5.25529e-41 7.41287e-42 9.87915e-43 1.24716e-43 1.54143e-44 1.4013e-45 0 0 0 0 0 0 0 0 0 0 0 0 0 0 0 0 0 0 0 0 
0 0 0 0 0 0 0 0 0 0 0 0 0 0 0 0 0 0 0 1.4013e-45 1.82169e-44 1.63952e-43 1.33123e-42 1.02071e-41 7.40362e-41 5.08318e-40 3.30695e-39 2.0405e-38 1.1952e-37 6.65095e-37 3.51863e-36 1.77089e-35 8.48381e-35 3.87078e-34 1.68276e-33 6.97339e-33 2.75571e-32 1.03882e-31 3.73681e-31 1.28302e-30 4.20581e-30 1.31658e-29 3.93659e-29 1.12447e-28 3.06912e-28 8.00554e-28 1.99597e-27 4.75748e-27 1.08428e-26 2.36338e-26 4.92771e-26 9.83073e-26 1.87706e-25 3.43138e-25 6.00796e-25 1.00799e-24 1.62143e-24 2.50231e-24 3.70789e-24 5.28031e-24 7.23471e-24 9.54942e-24 1.21616e-23 1.49703e-23 1.78478e-23 2.06565e-23 2.32687e-23 2.55834e-23 2.75378e-23 2.91103e-23 3.03158e-23 3.11967e-23 3.18101e-23 3.22173e-23 3.2475e-23 3.26304e-23 3.27198e-23 3.27689e-23 3.27945e-23 3.28073e-23 3.28134e-23 3.28161e-23 3.28173e-23 3.28178e-23 3.2818e-23 3.28181e-23 3.28181e-23 3.28181e-23 3.28181e-23 3.28181e-23 3.28181e-23 3.28181e-23 3.28181e-23 3.28181e-23 3.28181e-23 3.28181e-23 3.28181e-23 3.28181e-23 3.28181e-23 3.28181e-23 3.28181e-23 3.28181e-23 3.28181e-23 3.28181e-23 3.28181e-23 3.28181e-23 3.28181e-23 3.28181e-23 3.28181e-23 3.28181e-23 3.28181e-23 3.28181e-23 3.28181e-23 3.28181e-23 3.28181e-23 3.28181e-23 3.28181e-23 3.28181e-23 3.28181e-23 3.28181e-23 3.28181e-23 3.28181e-23 3.28181e-23 3.28181e-23 3.28181e-23 3.28181e-23 3.28181e-23 3.28181e-23 3.28181e-23 3.28181e-23 3.28181e-23 3.28181e-23 3.28181e-23 3.28181e-23 3.28181e-23 3.28181e-23 3.28181e-23 3.28181e-23 3.28181e-23 3.28181e-23 3.28181e-23 3.28181e-23 3.28181e-23 3.28181e-23 3.28181e-23 3.28181e-23 3.28181e-23 3.28181e-23 3.28181e-23 3.28181e-23 3.28181e-23 3.28181e-23 3.28181e-23 3.28181e-23 3.28181e-23 3.28181e-23 3.28181e-23 3.28181e-23 3.28181e-23 3.28181e-23 3.28181e-23 3.28181e-23 3.28181e-23 3.28181e-23 3.28181e-23 3.28181e-23 3.28181e-23 3.28181e-23 3.28181e-23 3.28181e-23 3.28181e-23 3.2818e-23 3.28178e-23 3.28173e-23 3.28161e-23 3.28134e-23 3.28073e-23 3.27945e-23 3.27689e-23 3.27198e-23 3.26304e-23 3.2475e-23 3.22173e-23 3.18101e-23 3.11967e-23 3.03158e-23 2.91103e-23 2.75378e-23 2.55834e-23 2.32687e-23 2.06565e-23 1.78478e-23 1.49703e-23 1.21616e-23 9.54942e-24 7.23471e-24 5.28031e-24 3.70789e-24 2.50231e-24 1.62143e-24 1.00799e-24 6.00796e-25 3.43138e-25 1.87706e-25 9.83073e-26 4.92771e-26 2.36338e-26 1.08428e-26 4.75748e-27 1.99597e-27 8.00554e-28 3.06912e-28 1.12447e-28 3.93659e-29 1.31658e-29 4.20581e-30 1.28302e-30 3.73681e-31 1.03882e-31 2.75571e-32 6.97339e-33 1.68276e-33 3.87078e-34 8.48381e-35 1.77089e-35 3.51863e-36 6.65095e-37 1.1952e-37 2.0405e-38 3.30695e-39 5.08318e-40 7.40362e-41 1.02071e-41 1.33123e-42 1.63952e-43 1.82169e-44 1.4013e-45 0 0 0 0 0 0 0 0 0 0 0 0 0 0 0 0 0 0 0 
0 0 0 0 0 0 0 0 0 0 0 0 0 0 0 0 0 0 1.4013e-45 2.24208e-44 2.05991e-43 1.71939e-42 1.34931e-41 1.00116e-40 7.03337e-40 4.68375e-39 2.95949e-38 1.7759e-37 1.01284e-36 5.49414e-36 2.83647e-35 1.39455e-34 6.5328e-34 2.91731e-33 1.24244e-32 5.04827e-32 1.95768e-31 7.24786e-31 2.56254e-30 8.65435e-30 2.79256e-29 8.61129e-29 2.53812e-28 7.1518e-28 1.92685e-27 4.9646e-27 1.22347e-26 2.88432e-26 6.50602e-26 1.4044e-25 2.90175e-25 5.74024e-25 1.08748e-24 1.97369e-24 3.43298e-24 5.72527e-24 9.15997e-24 1.40685e-23 2.07586e-23 2.94538e-23 4.02302e-23 5.29648e-23 6.73129e-23 8.27258e-23 9.8511e-23 1.13924e-22 1.28272e-22 1.41007e-22 1.51783e-22 1.60478e-22 1.67168e-22 1.72077e-22 1.75512e-22 1.77804e-22 1.79263e-22 1.80149e-22 1.80663e-22 1.80947e-22 1.81096e-22 1.81172e-22 1.81208e-22 1.81225e-22 1.81232e-22 1.81235e-22 1.81236e-22 1.81237e-22 1.81237e-22 1.81237e-22 1.81237e-22 1.81237e-22 1.81237e-22 1.81237e-22 1.81237e-22 1.81237e-22 1.81237e-22 1.81237e-22 1.81237e-22 1.81237e-22 1.81237e-22 1.81237e-22 1.81237e-22 1.81237e-22 1.81237e-22 1.81237e-22 1.81237e-22 1.81237e-22 1.81237e-22 1.81237e-22 1.81237e-22 1.81237e-22 1.81237e-22 1.81237e-22 1.81237e-22 1.81237e-22 1.81237e-22 1.81237e-22 1.81237e-22 1.81237e-22 1.81237e-22 1.81237e-22 1.81237e-22 1.81237e-22 1.81237e-22 1.81237e-22 1.81237e-22 1.81237e-22 1.81237e-22 1.81237e-22 1.81237e-22 1.81237e-22 1.81237e-22 1.81237e-22 1.81237e-22 1.81237e-22 1.81237e-22 1.81237e-22 1.81237e-22 1.81237e-22 1.81237e-22 1.81237e-22 1.81237e-22 1.81237e-22 1.81237e-22 1.81237e-22 1.81237e-22 1.81237e-22 1.81237e-22 1.81237e-22 1.81237e-22 1.81237e-22 1.81237e-22 1.81237e-22 1.81237e-22 1.81237e-22 1.81237e-22 1.81237e-22 1.81237e-22 1.81237e-22 1.81237e-22 1.81237e-22 1.81237e-22 1.81237e-22 1.81237e-22 1.81237e-22 1.81237e-22 1.81237e-22 1.81237e-22 1.81237e-22 1.81237e-22 1.81237e-22 1.81237e-22 1.81236e-22 1.81235e-22 1.81232e-22 1.81225e-22 1.81208e-22 1.81172e-22 1.81096e-22 1.80947e-22 1.80663e-22 1.80149e-22 1.79263e-22 1.77804e-22 1.75512e-22 1.72077e-22 1.67168e-22 1.60478e-22 1.51783e-22 1.41007e-22 1.28272e-22 1.13924e-22 9.8511e-23 8.27258e-23 6.73129e-23 5.29648e-23 4.02302e-23 2.94538e-23 2.07586e-23 1.40685e-23 9.15997e-24 5.72527e-24 3.43298e-24 1.97369e-24 1.08748e-24 5.74024e-25 2.90175e-25 1.4044e-25 6.50602e-26 2.88432e-26 1.22347e-26 4.9646e-27 1.92685e-27 7.1518e-28 2.53812e-28 8.61129e-29 2.79256e-29 8.65435e-30 2.56254e-30 7.24786e-31 1.95768e-31 5.04827e-32 1.24244e-32 2.91731e-33 6.5328e-34 1.39455e-34 2.83647e-35 5.49414e-36 1.01284e-36 1.7759e-37 2.95949e-38 4.68375e-39 7.03337e-40 1.00116e-40 1.34931e-41 1.71939e-42 2.05991e-43 2.24208e-44 1.4013e-45 0 0 0 0 0 0 0 0 0 0 0 0 0 0 0 0 0 0 
0 0 0 0 0 0 0 0 0 0 0 0 0 0 0 0 0 2.8026e-45 2.94273e-44 2.50832e-43 2.13698e-42 1.71365e-41 1.29986e-40 9.33965e-40 6.36362e-39 4.11569e-38 2.5289e-37 1.47748e-36 8.21352e-36 4.34754e-35 2.19242e-34 1.05392e-33 4.83173e-33 2.11353e-32 8.82457e-32 3.51817e-31 1.33973e-30 4.87442e-30 1.69491e-29 5.63365e-29 1.79038e-28 5.44127e-28 1.58172e-27 4.3985e-27 1.17029e-26 2.97967e-26 7.26086e-26 1.69366e-25 3.78227e-25 8.08815e-25 1.65656e-24 3.25032e-24 6.11122e-24 1.10142e-23 1.90358e-23 3.15629e-23 5.02349e-23 7.67962e-23 1.12852e-22 1.59556e-22 2.17278e-22 2.85341e-22 3.61909e-22 4.44083e-22 5.28216e-22 6.10391e-22 6.86959e-22 7.55022e-22 8.12743e-22 8.59447e-22 8.95504e-22 9.22065e-22 9.40737e-22 9.53264e-22 9.61285e-22 9.66188e-22 9.69049e-22 9.70643e-22 9.71491e-22 9.71921e-22 9.7213e-22 9.72227e-22 9.7227e-22 9.72288e-22 9.72295e-22 9.72298e-22 9.72299e-22 9.723e-22 9.723e-22 9.723e-22 9.723e-22 9.723e-22 9.723e-22 9.723e-22 9.723e-22 9.723e-22 9.723e-22 9.723e-22 9.723e-22 9.723e-22 9.723e-22 9.723e-22 9.723e-22 9.723e-22 9.723e-22 9.723e-22 9.723e-22 9.723e-22 9.723e-22 9.723e-22 9.723e-22 9.723e-22 9.723e-22 9.723e-22 9.723e-22 9.723e-22 9.723e-22 9.723e-22 9.723e-22 9.723e-22 9.723e-22 9.723e-22 9.723e-22 9.723e-22 9.723e-22 9.723e-22 9.723e-22 9.723e-22 9.723e-22 9.723e-22 9.723e-22 9.723e-22 9.723e-22 9.723e-22 9.723e-22 9.723e-22 9.723e-22 9.723e-22 9.723e-22 9.723e-22 9.723e-22 9.723e-22 9.723e-22 9.723e-22 9.723e-22 9.723e-22 9.723e-22 9.723e-22 9.723e-22 9.723e-22 9.723e-22 9.723e-22 9.723e-22 9.723e-22 9.723e-22 9.723e-22 9.723e-22 9.723e-22 9.723e-22 9.723e-22 9.723e-22 9.723e-22 9.723e-22 9.723e-22 9.723e-22 9.723e-22 9.723e-22 9.723e-22 9.723e-22 9.72299e-22 9.72298e-22 9.72295e-22 9.72288e-22 9.7227e-22 9.72227e-22 9.7213e-22 9.71921e-22 9.71491e-22 9.70643e-22 9.69049e-22 9.66188e-22 9.61285e-22 9.53264e-22 9.40737e-22 9.22065e-22 8.95504e-22 8.59447e-22 8.12743e-22 7.55022e-22 6.86959e-22 6.10391e-22 5.28216e-22 4.44083e-22 3.61909e-22 2.85341e-22 2.17278e-22 1.59556e-22 1.12852e-22 7.67962e-23 5.02349e-23 3.15629e-23 1.90358e-23 1.10142e-23 6.11122e-24 3.25032e-24 1.65656e-24 8.08815e-25 3.78227e-25 1.69366e-25 7.26086e-26 2.97967e-26 1.17029e-26 4.3985e-27 1.58172e-27 5.44127e-28 1.79038e-28 5.63365e-29 1.69491e-29 4.87442e-30 1.33973e-30 3.51817e-31 8.82457e-32 2.11353e-32 4.83173e-33 1.05392e-33 2.19242e-34 4.34754e-35 8.21352e-36 1.47748e-36 2.5289e-37 4.11569e-38 6.36362e-39 9.33965e-40 1.29986e-40 1.71365e-41 2.13698e-42 2.50832e-43 2.94273e-44 2.8026e-45 0 0 0 0 0 0 0 0 0 0 0 0 0 0 0 0 0 
0 0 0 0 0 0 0 0 0 0 0 0 0 0 0 0 2.8026e-45 3.22299e-44 2.94273e-43 2.55317e-42 2.0906e-41 1.62067e-40 1.1905e-39 8.29587e-39 5.48938e-38 3.45227e-37 2.06518e-36 1.176e-35 6.37881e-35 3.29778e-34 1.6259e-33 7.64836e-33 3.43435e-32 1.47265e-31 6.03238e-31 2.36135e-30 8.8357e-30 3.16116e-29 1.08164e-28 3.54033e-28 1.1087e-27 3.32253e-27 9.52979e-27 2.61651e-26 6.87783e-26 1.73113e-25 4.17277e-25 9.63383e-25 2.1307e-24 4.51518e-24 9.16944e-24 1.78496e-23 3.33155e-23 5.96403e-23 1.02441e-22 1.68903e-22 2.67467e-22 4.0705e-22 5.95795e-22 8.39477e-22 1.13983e-21 1.49326e-21 1.89026e-21 2.31594e-21 2.75164e-21 3.17732e-21 3.57432e-21 3.92775e-21 4.22811e-21 4.47179e-21 4.66053e-21 4.80011e-21 4.89868e-21 4.96514e-21 5.00794e-21 5.03427e-21 5.04973e-21 5.05841e-21 5.06307e-21 5.06545e-21 5.06662e-21 5.06716e-21 5.06741e-21 5.06751e-21 5.06756e-21 5.06757e-21 5.06758e-21 5.06758e-21 5.06758e-21 5.06758e-21 5.06758e-21 5.06758e-21 5.06758e-21 5.06758e-21 5.06758e-21 5.06758e-21 5.06758e-21 5.06758e-21 5.06758e-21 5.06758e-21 5.06758e-21 5.06758e-21 5.06758e-21 5.06758e-21 5.06758e-21 5.06758e-21 5.06758e-21 5.06758e-21 5.06758e-21 5.06758e-21 5.06758e-21 5.06758e-21 5.06758e-21 5.06758e-21 5.06758e-21 5.06758e-21 5.06758e-21 5.06758e-21 5.06758e-21 5.06758e-21 5.06758e-21 5.06758e-21 5.06758e-21 5.06758e-21 5.06758e-21 5.06758e-21 5.06758e-21 5.06758e-21 5.06758e-21 5.06758e-21 5.06758e-21 5.06758e-21 5.06758e-21 5.06758e-21 5.06758e-21 5.06758e-21 5.06758e-21 5.06758e-21 5.06758e-21 5.06758e-21 5.06758e-21 5.06758e-21 5.06758e-21 5.06758e-21 5.06758e-21 5.06758e-21 5.06758e-21 5.06758e-21 5.06758e-21 5.06758e-21 5.06758e-21 5.06758e-21 5.06758e-21 5.06758e-21 5.06758e-21 5.06758e-21 5.06758e-21 5.06758e-21 5.06758e-21 5.06758e-21 5.06758e-21 5.06758e-21 5.06758e-21 5.06758e-21 5.06758e-21 5.06758e-21 5.06758e-21 5.06758e-21 5.06758e-21 5.06758e-21 5.06757e-21 5.06756e-21 5.06751e-21 5.06741e-21 5.06716e-21 5.06662e-21 5.06545e-21 5.06307e-21 5.05841e-21 5.04973e-21 5.03427e-21 5.00794e-21 4.96514e-21 4.89868e-21 4.80011e-21 4.66053e-21 4.47179e-21 4.22811e-21 3.92775e-21 3.57432e-21 3.17732e-21 2.75164e-21 2.31594e-21 1.89026e-21 1.49326e-21 1.13983e-21 8.39477e-22 5.95795e-22 4.0705e-22 2.67467e-22 1.68903e-22 1.02441e-22 5.96403e-23 3.33155e-23 1.78496e-23 9.16944e-24 4.51518e-24 2.1307e-24 9.63383e-25 4.17277e-25 1.73113e-25 6.87783e-26 2.61651e-26 9.52979e-27 3.32253e-27 1.1087e-27 3.54033e-28 1.08164e-28 3.16116e-29 8.8357e-30 2.36135e-30 6.03238e-31 1.47265e-31 3.43435e-32 7.64836e-33 1.6259e-33 3.29778e-34 6.37881e-35 1.176e-35 2.06518e-36 3.45227e-37 5.48938e-38 8.29587e-39 1.1905e-39 1.62067e-40 2.0906e-41 2.55317e-42 2.94273e-43 3.22299e-44 2.8026e-45 0 0 0 0 0 0 0 0 0 0 0 0 0 0 0 0 