<?xml version="1.0"?>
<VTKFile type="ImageData" version="0.1" byte_order="LittleEndian">
  <ImageData WholeExtent="0 255 0 255 0 0" Origin="0 0 0" Spacing="1 1 1">
  <Piece Extent="0 255 0 255 0 0">
    <PointData>
      <DataArray type="Float32" Name="scalar_data" format="ascii" >0 0 0 0 0 0 0 0 0 0 0 0 0 0 0 0 0 0 0 0 0 0 0 0 0 0 0 0 0 0 0 0 0 0 0 0 0 0 0 0 0 0 0 0 0 0 0 0 0 0 0 0 0 0 0 0 0 0 0 0 0 0 0 0 0 0 0 0 0 0 0 0 0 0 0 0 0 0 0 0 0 0 0 0 0 0 0 0 0 0 0 0 0 0 0 0 0 0 0 0 0 0 0 0 0 0 0 0 0 0 0 0 0 0 0 0 0 0 0 0 0 0 0 0 0 0 0 0 0 0 0 0 0 0 0 0 0 0 0 0 0 0 0 0 0 0 0 0 0 0 0 0 0 0 0 0 0 0 0 0 0 0 0 0 0 0 0 0 0 0 0 0 0 0 0 0 0 0 0 0 0 0 0 0 0 0 0 0 0 0 0 0 0 0 0 0 0 0 0 0 0 0 0 0 0 0 0 0 0 0 0 0 0 0 0 0 0 0 0 0 0 0 0 0 0 0 0 0 0 0 0 0 0 0 0 0 0 0 0 0 0 0 0 0 0 0 0 0 0 0 0 0 0 0 0 0 
0 0 0 0 0 0 0 0 1.4013e-45 1.12104e-44 6.5861e-44 3.79752e-43 2.08513e-42 1.1052e-41 5.66727e-41 2.81112e-40 1.34914e-39 6.26627e-39 2.81722e-38 1.22624e-37 5.16828e-37 2.10961e-36 8.34078e-36 3.19462e-35 1.18547e-34 4.26259e-34 1.48529e-33 5.01582e-33 1.64175e-32 5.20881e-32 1.60202e-31 4.77666e-31 1.38081e-30 3.87007e-30 1.05173e-29 2.77147e-29 7.08205e-29 1.75497e-28 4.21757e-28 9.8301e-28 2.22218e-27 4.87245e-27 1.03631e-26 2.13813e-26 4.2797e-26 8.3112e-26 1.56613e-25 2.86386e-25 5.08271e-25 8.75631e-25 1.46455e-24 2.37867e-24 3.7524e-24 5.75105e-24 8.56612e-24 1.24044e-23 1.74704e-23 2.39425e-23 3.19461e-23 4.15257e-23 5.26236e-23 6.5067e-23 7.85706e-23 9.27531e-23 1.07169e-22 1.21352e-22 1.34855e-22 1.47299e-22 1.58397e-22 1.67976e-22 1.7598e-22 1.82452e-22 1.87518e-22 1.91356e-22 1.94171e-22 1.9617e-22 1.97544e-22 1.98458e-22 1.99047e-22 1.99414e-22 1.99636e-22 1.99766e-22 1.99839e-22 1.9988e-22 1.99901e-22 1.99912e-22 1.99918e-22 1.9992e-22 1.99922e-22 1.99922e-22 1.99922e-22 1.99922e-22 1.99922e-22 1.99922e-22 1.99922e-22 1.99922e-22 1.99922e-22 1.99922e-22 1.99922e-22 1.99922e-22 1.99922e-22 1.99922e-22 1.99922e-22 1.99922e-22 1.99922e-22 1.99922e-22 1.99922e-22 1.99922e-22 1.99922e-22 1.99922e-22 1.99922e-22 1.99922e-22 1.99922e-22 1.99922e-22 1.99922e-22 1.99922e-22 1.99922e-22 1.99922e-22 1.99922e-22 1.99922e-22 1.99922e-22 1.99922e-22 1.99922e-22 1.99922e-22 1.99922e-22 1.99922e-22 1.99922e-22 1.99922e-22 1.99922e-22 1.99922e-22 1.99922e-22 1.99922e-22 1.99922e-22 1.99922e-22 1.99922e-22 1.99922e-22 1.99922e-22 1.99922e-22 1.99922e-22 1.99922e-22 1.99922e-22 1.99922e-22 1.99922e-22 1.99922e-22 1.99922e-22 1.99922e-22 1.99922e-22 1.99922e-22 1.99922e-22 1.99922e-22 1.99922e-22 1.99922e-22 1.99922e-22 1.99922e-22 1.99922e-22 1.99922e-22 1.99922e-22 1.99922e-22 1.99922e-22 1.99922e-22 1.99922e-22 1.99922e-22 1.99922e-22 1.99922e-22 1.99922e-22 1.99922e-22 1.99922e-22 1.99922e-22 1.9992e-22 1.99918e-22 1.99912e-22 1.99901e-22 1.9988e-22 1.99839e-22 1.99766e-22 1.99636e-22 1.99414e-22 1.99047e-22 1.98458e-22 1.97544e-22 1.9617e-22 1.94171e-22 1.91356e-22 1.87518e-22 1.82452e-22 1.7598e-22 1.67976e-22 1.58397e-22 1.47299e-22 1.34855e-22 1.21352e-22 1.07169e-22 9.27531e-23 7.85706e-23 6.5067e-23 5.26236e-23 4.15257e-23 3.19461e-23 2.39425e-23 1.74704e-23 1.24044e-23 8.56612e-24 5.75105e-24 3.7524e-24 2.37867e-24 1.46455e-24 8.75631e-25 5.08271e-25 2.86386e-25 1.56613e-25 8.3112e-26 4.2797e-26 2.13813e-26 1.03631e-26 4.87245e-27 2.22218e-27 9.8301e-28 4.21757e-28 1.75497e-28 7.08205e-29 2.77147e-29 1.05173e-29 3.87007e-30 1.38081e-30 4.77666e-31 1.60202e-31 5.20881e-32 1.64175e-32 5.01582e-33 1.48529e-33 4.26259e-34 1.18547e-34 3.19462e-35 8.34078e-36 2.10961e-36 5.16828e-37 1.22624e-37 2.81722e-38 6.26627e-39 1.34914e-39 2.81112e-40 5.66727e-41 1.1052e-41 2.08513e-42 3.79752e-43 6.5861e-44 1.12104e-44 1.4013e-45 0 0 0 0 0 0 0 0 
0 0 0 0 0 0 0 1.4013e-45 1.26117e-44 7.70714e-44 4.48416e-43 2.50692e-42 1.35379e-41 7.07011e-41 3.57244e-40 1.74691e-39 8.26881e-39 3.7894e-38 1.68165e-37 7.22794e-37 3.00937e-36 1.21391e-35 4.74461e-35 1.79712e-34 6.59724e-34 2.34749e-33 8.09736e-33 2.70781e-32 8.77933e-32 2.75998e-31 8.41357e-31 2.4872e-30 7.13051e-30 1.98259e-29 5.34647e-29 1.39844e-28 3.548e-28 8.73178e-28 2.08459e-27 4.8279e-27 1.08476e-26 2.36468e-26 5.00145e-26 1.02644e-25 2.04417e-25 3.95076e-25 7.41082e-25 1.34934e-24 2.38508e-24 4.09329e-24 6.82193e-24 1.10431e-23 1.73671e-23 2.65417e-23 3.94303e-23 5.69624e-23 8.00534e-23 1.09499e-22 1.45854e-22 1.89308e-22 2.39593e-22 2.95926e-22 3.5702e-22 4.21162e-22 4.86354e-22 5.50496e-22 6.1159e-22 6.67923e-22 7.18208e-22 7.61662e-22 7.98016e-22 8.27462e-22 8.50553e-22 8.68085e-22 8.80974e-22 8.90149e-22 8.96473e-22 9.00694e-22 9.03422e-22 9.0513e-22 9.06166e-22 9.06775e-22 9.0712e-22 9.07311e-22 9.07413e-22 9.07465e-22 9.07492e-22 9.07505e-22 9.07511e-22 9.07513e-22 9.07515e-22 9.07515e-22 9.07515e-22 9.07515e-22 9.07515e-22 9.07515e-22 9.07515e-22 9.07515e-22 9.07515e-22 9.07515e-22 9.07515e-22 9.07515e-22 9.07515e-22 9.07515e-22 9.07515e-22 9.07515e-22 9.07515e-22 9.07515e-22 9.07515e-22 9.07515e-22 9.07515e-22 9.07515e-22 9.07515e-22 9.07515e-22 9.07515e-22 9.07515e-22 9.07515e-22 9.07515e-22 9.07515e-22 9.07515e-22 9.07515e-22 9.07515e-22 9.07515e-22 9.07515e-22 9.07515e-22 9.07515e-22 9.07515e-22 9.07515e-22 9.07515e-22 9.07515e-22 9.07515e-22 9.07515e-22 9.07515e-22 9.07515e-22 9.07515e-22 9.07515e-22 9.07515e-22 9.07515e-22 9.07515e-22 9.07515e-22 9.07515e-22 9.07515e-22 9.07515e-22 9.07515e-22 9.07515e-22 9.07515e-22 9.07515e-22 9.07515e-22 9.07515e-22 9.07515e-22 9.07515e-22 9.07515e-22 9.07515e-22 9.07515e-22 9.07515e-22 9.07515e-22 9.07515e-22 9.07515e-22 9.07515e-22 9.07515e-22 9.07515e-22 9.07515e-22 9.07515e-22 9.07515e-22 9.07515e-22 9.07515e-22 9.07513e-22 9.07511e-22 9.07505e-22 9.07492e-22 9.07465e-22 9.07413e-22 9.07311e-22 9.0712e-22 9.06775e-22 9.06166e-22 9.0513e-22 9.03422e-22 9.00694e-22 8.96473e-22 8.90149e-22 8.80974e-22 8.68085e-22 8.50553e-22 8.27462e-22 7.98016e-22 7.61662e-22 7.18208e-22 6.67923e-22 6.1159e-22 5.50496e-22 4.86354e-22 4.21162e-22 3.5702e-22 2.95926e-22 2.39593e-22 1.89308e-22 1.45854e-22 1.09499e-22 8.00534e-23 5.69624e-23 3.94303e-23 2.65417e-23 1.73671e-23 1.10431e-23 6.82193e-24 4.09329e-24 2.38508e-24 1.34934e-24 7.41082e-25 3.95076e-25 2.04417e-25 1.02644e-25 5.00145e-26 2.36468e-26 1.08476e-26 4.8279e-27 2.08459e-27 8.73178e-28 3.548e-28 1.39844e-28 5.34647e-29 1.98259e-29 7.13051e-30 2.4872e-30 8.41357e-31 2.75998e-31 8.77933e-32 2.70781e-32 8.09736e-33 2.34749e-33 6.59724e-34 1.79712e-34 4.74461e-35 1.21391e-35 3.00937e-36 7.22794e-37 1.68165e-37 3.7894e-38 8.26881e-39 1.74691e-39 3.57244e-40 7.07011e-41 1.35379e-41 2.50692e-42 4.48416e-43 7.70714e-44 1.26117e-44 1.4013e-45 0 0 0 0 0 0 0 
0 0 0 0 0 0 1.4013e-45 1.26117e-44 8.40779e-44 5.03066e-43 2.85585e-42 1.56903e-41 8.33745e-41 4.28734e-40 2.13407e-39 1.02846e-38 4.79973e-38 2.16959e-37 9.50054e-37 4.03086e-36 1.65727e-35 6.60381e-35 2.55068e-34 9.55056e-34 3.46704e-33 1.22037e-32 4.16543e-32 1.37881e-31 4.42642e-31 1.37828e-30 4.16276e-30 1.21959e-29 3.46618e-29 9.55693e-29 2.55642e-28 6.63458e-28 1.67062e-27 4.08172e-27 9.67671e-27 2.22612e-26 4.96968e-26 1.07668e-25 2.26384e-25 4.61994e-25 9.15138e-25 1.75967e-24 3.28484e-24 5.95358e-24 1.04781e-23 1.79096e-23 2.97349e-23 4.79633e-23 7.51817e-23 1.14549e-22 1.69699e-22 2.44529e-22 3.42864e-22 4.68011e-22 6.22253e-22 8.06349e-22 1.01913e-21 1.25728e-21 1.51539e-21 1.78626e-21 2.06153e-21 2.33241e-21 2.59052e-21 2.82867e-21 3.04144e-21 3.22554e-21 3.37978e-21 3.50493e-21 3.60326e-21 3.67809e-21 3.73325e-21 3.77261e-21 3.79983e-21 3.81806e-21 3.82988e-21 3.83732e-21 3.84184e-21 3.84451e-21 3.84603e-21 3.84688e-21 3.84733e-21 3.84757e-21 3.84769e-21 3.84774e-21 3.84777e-21 3.84778e-21 3.84779e-21 3.84779e-21 3.84779e-21 3.84779e-21 3.84779e-21 3.84779e-21 3.84779e-21 3.84779e-21 3.84779e-21 3.84779e-21 3.84779e-21 3.84779e-21 3.84779e-21 3.84779e-21 3.84779e-21 3.84779e-21 3.84779e-21 3.84779e-21 3.84779e-21 3.84779e-21 3.84779e-21 3.84779e-21 3.84779e-21 3.84779e-21 3.84779e-21 3.84779e-21 3.84779e-21 3.84779e-21 3.84779e-21 3.84779e-21 3.84779e-21 3.84779e-21 3.84779e-21 3.84779e-21 3.84779e-21 3.84779e-21 3.84779e-21 3.84779e-21 3.84779e-21 3.84779e-21 3.84779e-21 3.84779e-21 3.84779e-21 3.84779e-21 3.84779e-21 3.84779e-21 3.84779e-21 3.84779e-21 3.84779e-21 3.84779e-21 3.84779e-21 3.84779e-21 3.84779e-21 3.84779e-21 3.84779e-21 3.84779e-21 3.84779e-21 3.84779e-21 3.84779e-21 3.84779e-21 3.84779e-21 3.84779e-21 3.84779e-21 3.84779e-21 3.84779e-21 3.84779e-21 3.84779e-21 3.84779e-21 3.84779e-21 3.84779e-21 3.84779e-21 3.84779e-21 3.84779e-21 3.84779e-21 3.84779e-21 3.84779e-21 3.84778e-21 3.84777e-21 3.84774e-21 3.84769e-21 3.84757e-21 3.84733e-21 3.84688e-21 3.84603e-21 3.84451e-21 3.84184e-21 3.83732e-21 3.82988e-21 3.81806e-21 3.79983e-21 3.77261e-21 3.73325e-21 3.67809e-21 3.60326e-21 3.50493e-21 3.37978e-21 3.22554e-21 3.04144e-21 2.82867e-21 2.59052e-21 2.33241e-21 2.06153e-21 1.78626e-21 1.51539e-21 1.25728e-21 1.01913e-21 8.06349e-22 6.22253e-22 4.68011e-22 3.42864e-22 2.44529e-22 1.69699e-22 1.14549e-22 7.51817e-23 4.79633e-23 2.97349e-23 1.79096e-23 1.04781e-23 5.95358e-24 3.28484e-24 1.75967e-24 9.15138e-25 4.61994e-25 2.26384e-25 1.07668e-25 4.96968e-26 2.22612e-26 9.67671e-27 4.08172e-27 1.67062e-27 6.63458e-28 2.55642e-28 9.55693e-29 3.46618e-29 1.21959e-29 4.16276e-30 1.37828e-30 4.42642e-31 1.37881e-31 4.16543e-32 1.22037e-32 3.46704e-33 9.55056e-34 2.55068e-34 6.60381e-35 1.65727e-35 4.03086e-36 9.50054e-37 2.16959e-37 4.79973e-38 1.02846e-38 2.13407e-39 4.28734e-40 8.33745e-41 1.56903e-41 2.85585e-42 5.03066e-43 8.40779e-44 1.26117e-44 1.4013e-45 0 0 0 0 0 0 
0 0 0 0 0 1.4013e-45 1.4013e-44 9.10844e-44 5.43704e-43 3.14872e-42 1.75905e-41 9.50809e-41 4.97464e-40 2.5199e-39 1.2361e-38 5.87307e-38 2.70334e-37 1.2057e-36 5.21135e-36 2.18325e-35 8.8666e-35 3.49116e-34 1.33288e-33 4.93483e-33 1.77195e-32 6.17124e-32 2.08482e-31 6.83238e-31 2.17227e-30 6.70071e-30 2.00548e-29 5.82406e-29 1.64122e-28 4.48805e-28 1.19102e-27 3.06737e-27 7.66682e-27 1.85988e-26 4.37914e-26 1.0008e-25 2.22013e-25 4.78081e-25 9.99407e-25 2.02827e-24 3.99652e-24 7.6462e-24 1.42055e-23 2.56309e-23 4.49179e-23 7.64693e-23 1.26485e-22 2.03312e-22 3.17656e-22 4.82541e-22 7.12896e-22 1.02468e-21 1.43348e-21 1.95273e-21 2.59162e-21 3.35306e-21 4.2321e-21 5.21505e-21 6.27968e-21 7.39653e-21 8.53136e-21 9.64822e-21 1.07128e-20 1.16958e-20 1.25748e-20 1.33363e-20 1.39752e-20 1.44944e-20 1.49032e-20 1.5215e-20 1.54454e-20 1.56102e-20 1.57246e-20 1.58014e-20 1.58514e-20 1.5883e-20 1.59023e-20 1.59137e-20 1.59202e-20 1.59239e-20 1.59259e-20 1.59269e-20 1.59274e-20 1.59277e-20 1.59278e-20 1.59279e-20 1.59279e-20 1.59279e-20 1.59279e-20 1.59279e-20 1.59279e-20 1.59279e-20 1.59279e-20 1.59279e-20 1.59279e-20 1.59279e-20 1.59279e-20 1.59279e-20 1.59279e-20 1.59279e-20 1.59279e-20 1.59279e-20 1.59279e-20 1.59279e-20 1.59279e-20 1.59279e-20 1.59279e-20 1.59279e-20 1.59279e-20 1.59279e-20 1.59279e-20 1.59279e-20 1.59279e-20 1.59279e-20 1.59279e-20 1.59279e-20 1.59279e-20 1.59279e-20 1.59279e-20 1.59279e-20 1.59279e-20 1.59279e-20 1.59279e-20 1.59279e-20 1.59279e-20 1.59279e-20 1.59279e-20 1.59279e-20 1.59279e-20 1.59279e-20 1.59279e-20 1.59279e-20 1.59279e-20 1.59279e-20 1.59279e-20 1.59279e-20 1.59279e-20 1.59279e-20 1.59279e-20 1.59279e-20 1.59279e-20 1.59279e-20 1.59279e-20 1.59279e-20 1.59279e-20 1.59279e-20 1.59279e-20 1.59279e-20 1.59279e-20 1.59279e-20 1.59279e-20 1.59279e-20 1.59279e-20 1.59279e-20 1.59279e-20 1.59279e-20 1.59279e-20 1.59279e-20 1.59279e-20 1.59279e-20 1.59279e-20 1.59279e-20 1.59279e-20 1.59278e-20 1.59277e-20 1.59274e-20 1.59269e-20 1.59259e-20 1.59239e-20 1.59202e-20 1.59137e-20 1.59023e-20 1.5883e-20 1.58514e-20 1.58014e-20 1.57246e-20 1.56102e-20 1.54454e-20 1.5215e-20 1.49032e-20 1.44944e-20 1.39752e-20 1.33363e-20 1.25748e-20 1.16958e-20 1.07128e-20 9.64822e-21 8.53136e-21 7.39653e-21 6.27968e-21 5.21505e-21 4.2321e-21 3.35306e-21 2.59162e-21 1.95273e-21 1.43348e-21 1.02468e-21 7.12896e-22 4.82541e-22 3.17656e-22 2.03312e-22 1.26485e-22 7.64693e-23 4.49179e-23 2.56309e-23 1.42055e-23 7.6462e-24 3.99652e-24 2.02827e-24 9.99407e-25 4.78081e-25 2.22013e-25 1.0008e-25 4.37914e-26 1.85988e-26 7.66682e-27 3.06737e-27 1.19102e-27 4.48805e-28 1.64122e-28 5.82406e-29 2.00548e-29 6.70071e-30 2.17227e-30 6.83238e-31 2.08482e-31 6.17124e-32 1.77195e-32 4.93483e-33 1.33288e-33 3.49116e-34 8.8666e-35 2.18325e-35 5.21135e-36 1.2057e-36 2.70334e-37 5.87307e-38 1.2361e-38 2.5199e-39 4.97464e-40 9.50809e-41 1.75905e-41 3.14872e-42 5.43704e-43 9.10844e-44 1.4013e-44 1.4013e-45 0 0 0 0 0 
0 0 0 0 1.4013e-45 1.4013e-44 9.3887e-44 5.70328e-43 3.35751e-42 1.90843e-41 1.04919e-40 5.58406e-40 2.87792e-39 1.43662e-38 6.94764e-38 3.25571e-37 1.47859e-36 6.509e-36 2.77789e-35 1.14951e-34 4.61279e-34 1.79523e-33 6.77692e-33 2.48166e-32 8.81639e-32 3.03889e-31 1.01636e-30 3.29852e-30 1.03886e-29 3.17532e-29 9.41957e-29 2.71212e-28 7.57949e-28 2.05609e-27 5.41418e-27 1.38397e-26 3.43429e-26 8.27337e-26 1.93499e-25 4.3938e-25 9.68697e-25 2.07367e-24 4.31042e-24 8.70068e-24 1.70557e-23 3.24715e-23 6.00472e-23 1.07866e-22 1.88251e-22 3.19233e-22 5.26103e-22 8.42775e-22 1.31258e-21 1.98807e-21 2.92924e-21 4.20002e-21 5.86262e-21 7.97038e-21 1.05594e-20 1.36408e-20 1.7194e-20 2.11637e-20 2.54604e-20 2.99663e-20 3.4544e-20 3.90498e-20 4.33466e-20 4.73163e-20 5.08695e-20 5.39509e-20 5.65399e-20 5.86477e-20 6.03103e-20 6.1581e-20 6.25222e-20 6.31977e-20 6.36675e-20 6.39842e-20 6.41911e-20 6.4322e-20 6.44024e-20 6.44502e-20 6.44778e-20 6.44932e-20 6.45016e-20 6.4506e-20 6.45082e-20 6.45093e-20 6.45098e-20 6.45101e-20 6.45102e-20 6.45103e-20 6.45103e-20 6.45103e-20 6.45103e-20 6.45103e-20 6.45103e-20 6.45103e-20 6.45103e-20 6.45103e-20 6.45103e-20 6.45103e-20 6.45103e-20 6.45103e-20 6.45103e-20 6.45103e-20 6.45103e-20 6.45103e-20 6.45103e-20 6.45103e-20 6.45103e-20 6.45103e-20 6.45103e-20 6.45103e-20 6.45103e-20 6.45103e-20 6.45103e-20 6.45103e-20 6.45103e-20 6.45103e-20 6.45103e-20 6.45103e-20 6.45103e-20 6.45103e-20 6.45103e-20 6.45103e-20 6.45103e-20 6.45103e-20 6.45103e-20 6.45103e-20 6.45103e-20 6.45103e-20 6.45103e-20 6.45103e-20 6.45103e-20 6.45103e-20 6.45103e-20 6.45103e-20 6.45103e-20 6.45103e-20 6.45103e-20 6.45103e-20 6.45103e-20 6.45103e-20 6.45103e-20 6.45103e-20 6.45103e-20 6.45103e-20 6.45103e-20 6.45103e-20 6.45103e-20 6.45103e-20 6.45103e-20 6.45103e-20 6.45103e-20 6.45103e-20 6.45103e-20 6.45103e-20 6.45103e-20 6.45103e-20 6.45103e-20 6.45103e-20 6.45103e-20 6.45103e-20 6.45103e-20 6.45102e-20 6.45101e-20 6.45098e-20 6.45093e-20 6.45082e-20 6.4506e-20 6.45016e-20 6.44932e-20 6.44778e-20 6.44502e-20 6.44024e-20 6.4322e-20 6.41911e-20 6.39842e-20 6.36675e-20 6.31977e-20 6.25222e-20 6.1581e-20 6.03103e-20 5.86477e-20 5.65399e-20 5.39509e-20 5.08695e-20 4.73163e-20 4.33466e-20 3.90498e-20 3.4544e-20 2.99663e-20 2.54604e-20 2.11637e-20 1.7194e-20 1.36408e-20 1.05594e-20 7.97038e-21 5.86262e-21 4.20002e-21 2.92924e-21 1.98807e-21 1.31258e-21 8.42775e-22 5.26103e-22 3.19233e-22 1.88251e-22 1.07866e-22 6.00472e-23 3.24715e-23 1.70557e-23 8.70068e-24 4.31042e-24 2.07367e-24 9.68697e-25 4.3938e-25 1.93499e-25 8.27337e-26 3.43429e-26 1.38397e-26 5.41418e-27 2.05609e-27 7.57949e-28 2.71212e-28 9.41957e-29 3.17532e-29 1.03886e-29 3.29852e-30 1.01636e-30 3.03889e-31 8.81639e-32 2.48166e-32 6.77692e-33 1.79523e-33 4.61279e-34 1.14951e-34 2.77789e-35 6.509e-36 1.47859e-36 3.25571e-37 6.94764e-38 1.43662e-38 2.87792e-39 5.58406e-40 1.04919e-40 1.90843e-41 3.35751e-42 5.70328e-43 9.3887e-44 1.4013e-44 1.4013e-45 0 0 0 0 
0 0 0 1.4013e-45 1.4013e-44 9.3887e-44 5.80138e-43 3.46961e-42 2.00414e-41 1.12035e-40 6.06432e-40 3.17926e-39 1.6147e-38 7.94646e-38 3.79016e-37 1.75236e-36 7.85497e-36 3.41422e-35 1.43922e-34 5.88447e-34 2.33393e-33 8.98089e-33 3.35309e-32 1.2148e-31 4.27109e-31 1.4574e-30 4.82679e-30 1.55168e-29 4.84216e-29 1.46686e-28 4.31394e-28 1.23172e-27 3.41447e-27 9.19012e-27 2.40172e-26 6.09452e-26 1.50172e-25 3.59322e-25 8.34911e-25 1.88397e-24 4.12859e-24 8.78707e-24 1.81644e-23 3.64721e-23 7.11362e-23 1.34786e-22 2.4812e-22 4.43801e-22 7.71395e-22 1.30314e-21 2.13994e-21 3.4166e-21 5.30474e-21 8.01173e-21 1.17736e-20 1.68409e-20 2.34566e-20 3.18279e-20 4.20941e-20 5.42958e-20 6.835e-20 8.40376e-20 1.01007e-19 1.18796e-19 1.36867e-19 1.54655e-19 1.71625e-19 1.87313e-19 2.01367e-19 2.13568e-19 2.23835e-19 2.32206e-19 2.38822e-19 2.43889e-19 2.47651e-19 2.50358e-19 2.52246e-19 2.53523e-19 2.54359e-19 2.54891e-19 2.55219e-19 2.55414e-19 2.55528e-19 2.55591e-19 2.55626e-19 2.55644e-19 2.55654e-19 2.55658e-19 2.55661e-19 2.55662e-19 2.55662e-19 2.55662e-19 2.55663e-19 2.55663e-19 2.55663e-19 2.55663e-19 2.55663e-19 2.55663e-19 2.55663e-19 2.55663e-19 2.55663e-19 2.55663e-19 2.55663e-19 2.55663e-19 2.55663e-19 2.55663e-19 2.55663e-19 2.55663e-19 2.55663e-19 2.55663e-19 2.55663e-19 2.55663e-19 2.55663e-19 2.55663e-19 2.55663e-19 2.55663e-19 2.55663e-19 2.55663e-19 2.55663e-19 2.55663e-19 2.55663e-19 2.55663e-19 2.55663e-19 2.55663e-19 2.55663e-19 2.55663e-19 2.55663e-19 2.55663e-19 2.55663e-19 2.55663e-19 2.55663e-19 2.55663e-19 2.55663e-19 2.55663e-19 2.55663e-19 2.55663e-19 2.55663e-19 2.55663e-19 2.55663e-19 2.55663e-19 2.55663e-19 2.55663e-19 2.55663e-19 2.55663e-19 2.55663e-19 2.55663e-19 2.55663e-19 2.55663e-19 2.55663e-19 2.55663e-19 2.55663e-19 2.55663e-19 2.55663e-19 2.55663e-19 2.55663e-19 2.55663e-19 2.55663e-19 2.55663e-19 2.55663e-19 2.55663e-19 2.55663e-19 2.55663e-19 2.55663e-19 2.55663e-19 2.55662e-19 2.55662e-19 2.55662e-19 2.55661e-19 2.55658e-19 2.55654e-19 2.55644e-19 2.55626e-19 2.55591e-19 2.55528e-19 2.55414e-19 2.55219e-19 2.54891e-19 2.54359e-19 2.53523e-19 2.52246e-19 2.50358e-19 2.47651e-19 2.43889e-19 2.38822e-19 2.32206e-19 2.23835e-19 2.13568e-19 2.01367e-19 1.87313e-19 1.71625e-19 1.54655e-19 1.36867e-19 1.18796e-19 1.01007e-19 8.40376e-20 6.835e-20 5.42958e-20 4.20941e-20 3.18279e-20 2.34566e-20 1.68409e-20 1.17736e-20 8.01173e-21 5.30474e-21 3.4166e-21 2.13994e-21 1.30314e-21 7.71395e-22 4.43801e-22 2.4812e-22 1.34786e-22 7.11362e-23 3.64721e-23 1.81644e-23 8.78707e-24 4.12859e-24 1.88397e-24 8.34911e-25 3.59322e-25 1.50172e-25 6.09452e-26 2.40172e-26 9.19012e-27 3.41447e-27 1.23172e-27 4.31394e-28 1.46686e-28 4.84216e-29 1.55168e-29 4.82679e-30 1.4574e-30 4.27109e-31 1.2148e-31 3.35309e-32 8.98089e-33 2.33393e-33 5.88447e-34 1.43922e-34 3.41422e-35 7.85497e-36 1.75236e-36 3.79016e-37 7.94646e-38 1.6147e-38 3.17926e-39 6.06432e-40 1.12035e-40 2.00414e-41 3.46961e-42 5.80138e-43 9.3887e-44 1.4013e-44 1.4013e-45 0 0 0 
0 0 1.4013e-45 1.26117e-44 9.10844e-44 5.70328e-43 3.46961e-42 2.03707e-41 1.15772e-40 6.37197e-40 3.3974e-39 1.75519e-38 8.78824e-38 4.26548e-37 2.00725e-36 9.15969e-36 4.0539e-35 1.74038e-34 7.24855e-34 2.92921e-33 1.14866e-32 4.37143e-32 1.61467e-31 5.78912e-31 2.01486e-30 6.80788e-30 2.23328e-29 7.11316e-29 2.19986e-28 6.60634e-28 1.92655e-27 5.45592e-27 1.50053e-26 4.00792e-26 1.03971e-25 2.61957e-25 6.41048e-25 1.52373e-24 3.51797e-24 7.88974e-24 1.71884e-23 3.6377e-23 7.47929e-23 1.49403e-22 2.89972e-22 5.46864e-22 1.00224e-21 1.78515e-21 3.0906e-21 5.20163e-21 8.51207e-21 1.35461e-20 2.09687e-20 3.15806e-20 4.62903e-20 6.60585e-20 9.18141e-20 1.24345e-19 1.64177e-19 2.11454e-19 2.65849e-19 3.26515e-19 3.92099e-19 4.60823e-19 5.30627e-19 5.99351e-19 6.64935e-19 7.25601e-19 7.79996e-19 8.27273e-19 8.67105e-19 8.99636e-19 9.25391e-19 9.4516e-19 9.59869e-19 9.70481e-19 9.77904e-19 9.82938e-19 9.86248e-19 9.88359e-19 9.89665e-19 9.90448e-19 9.90903e-19 9.9116e-19 9.91301e-19 9.91375e-19 9.91414e-19 9.91433e-19 9.91442e-19 9.91446e-19 9.91449e-19 9.91449e-19 9.9145e-19 9.9145e-19 9.9145e-19 9.9145e-19 9.9145e-19 9.9145e-19 9.9145e-19 9.9145e-19 9.9145e-19 9.9145e-19 9.9145e-19 9.9145e-19 9.9145e-19 9.9145e-19 9.9145e-19 9.9145e-19 9.9145e-19 9.9145e-19 9.9145e-19 9.9145e-19 9.9145e-19 9.9145e-19 9.9145e-19 9.9145e-19 9.9145e-19 9.9145e-19 9.9145e-19 9.9145e-19 9.9145e-19 9.9145e-19 9.9145e-19 9.9145e-19 9.9145e-19 9.9145e-19 9.9145e-19 9.9145e-19 9.9145e-19 9.9145e-19 9.9145e-19 9.9145e-19 9.9145e-19 9.9145e-19 9.9145e-19 9.9145e-19 9.9145e-19 9.9145e-19 9.9145e-19 9.9145e-19 9.9145e-19 9.9145e-19 9.9145e-19 9.9145e-19 9.9145e-19 9.9145e-19 9.9145e-19 9.9145e-19 9.9145e-19 9.9145e-19 9.9145e-19 9.9145e-19 9.9145e-19 9.9145e-19 9.9145e-19 9.9145e-19 9.9145e-19 9.9145e-19 9.9145e-19 9.9145e-19 9.9145e-19 9.9145e-19 9.9145e-19 9.9145e-19 9.91449e-19 9.91449e-19 9.91446e-19 9.91442e-19 9.91433e-19 9.91414e-19 9.91375e-19 9.91301e-19 9.9116e-19 9.90903e-19 9.90448e-19 9.89665e-19 9.88359e-19 9.86248e-19 9.82938e-19 9.77904e-19 9.70481e-19 9.59869e-19 9.4516e-19 9.25391e-19 8.99636e-19 8.67105e-19 8.27273e-19 7.79996e-19 7.25601e-19 6.64935e-19 5.99351e-19 5.30627e-19 4.60823e-19 3.92099e-19 3.26515e-19 2.65849e-19 2.11454e-19 1.64177e-19 1.24345e-19 9.18141e-20 6.60585e-20 4.62903e-20 3.15806e-20 2.09687e-20 1.35461e-20 8.51207e-21 5.20163e-21 3.0906e-21 1.78515e-21 1.00224e-21 5.46864e-22 2.89972e-22 1.49403e-22 7.47929e-23 3.6377e-23 1.71884e-23 7.88974e-24 3.51797e-24 1.52373e-24 6.41048e-25 2.61957e-25 1.03971e-25 4.00792e-26 1.50053e-26 5.45592e-27 1.92655e-27 6.60634e-28 2.19986e-28 7.11316e-29 2.23328e-29 6.80788e-30 2.01486e-30 5.78912e-31 1.61467e-31 4.37143e-32 1.14866e-32 2.92921e-33 7.24855e-34 1.74038e-34 4.0539e-35 9.15969e-36 2.00725e-36 4.26548e-37 8.78824e-38 1.75519e-38 3.3974e-39 6.37197e-40 1.15772e-40 2.03707e-41 3.46961e-42 5.70328e-43 9.10844e-44 1.26117e-44 1.4013e-45 0 0 
0 1.4013e-45 1.26117e-44 8.40779e-44 5.43704e-43 3.35751e-42 2.00414e-41 1.15772e-40 6.47795e-40 3.51199e-39 1.84526e-38 9.39817e-38 4.64089e-37 2.22235e-36 1.03218e-35 4.65046e-35 2.03285e-34 8.62261e-34 3.5494e-33 1.41809e-32 5.49964e-32 2.07055e-31 7.56833e-31 2.68603e-30 9.25662e-30 3.09779e-29 1.00679e-28 3.17784e-28 9.74221e-28 2.9009e-27 8.39025e-27 2.35722e-26 6.43316e-26 1.70553e-25 4.39257e-25 1.09904e-24 2.67153e-24 6.30908e-24 1.4476e-23 3.22715e-23 6.99031e-23 1.47129e-22 3.00914e-22 5.98078e-22 1.15523e-21 2.16876e-21 3.95752e-21 7.02016e-21 1.2107e-20 2.03028e-20 3.3111e-20 5.25255e-20 8.10673e-20 1.21762e-19 1.7803e-19 2.53478e-19 3.51579e-19 4.75266e-19 6.26478e-19 8.05721e-19 1.01173e-18 1.2413e-18 1.48933e-18 1.74914e-18 2.013e-18 2.27281e-18 2.52084e-18 2.75041e-18 2.95642e-18 3.13566e-18 3.28687e-18 3.41056e-18 3.50866e-18 3.58411e-18 3.64038e-18 3.68107e-18 3.70961e-18 3.72903e-18 3.74183e-18 3.75003e-18 3.75512e-18 3.75818e-18 3.75997e-18 3.76098e-18 3.76154e-18 3.76184e-18 3.76199e-18 3.76207e-18 3.7621e-18 3.76212e-18 3.76213e-18 3.76213e-18 3.76214e-18 3.76214e-18 3.76214e-18 3.76214e-18 3.76214e-18 3.76214e-18 3.76214e-18 3.76214e-18 3.76214e-18 3.76214e-18 3.76214e-18 3.76214e-18 3.76214e-18 3.76214e-18 3.76214e-18 3.76214e-18 3.76214e-18 3.76214e-18 3.76214e-18 3.76214e-18 3.76214e-18 3.76214e-18 3.76214e-18 3.76214e-18 3.76214e-18 3.76214e-18 3.76214e-18 3.76214e-18 3.76214e-18 3.76214e-18 3.76214e-18 3.76214e-18 3.76214e-18 3.76214e-18 3.76214e-18 3.76214e-18 3.76214e-18 3.76214e-18 3.76214e-18 3.76214e-18 3.76214e-18 3.76214e-18 3.76214e-18 3.76214e-18 3.76214e-18 3.76214e-18 3.76214e-18 3.76214e-18 3.76214e-18 3.76214e-18 3.76214e-18 3.76214e-18 3.76214e-18 3.76214e-18 3.76214e-18 3.76214e-18 3.76214e-18 3.76214e-18 3.76214e-18 3.76214e-18 3.76214e-18 3.76214e-18 3.76214e-18 3.76214e-18 3.76214e-18 3.76214e-18 3.76214e-18 3.76214e-18 3.76214e-18 3.76214e-18 3.76214e-18 3.76214e-18 3.76213e-18 3.76213e-18 3.76212e-18 3.7621e-18 3.76207e-18 3.76199e-18 3.76184e-18 3.76154e-18 3.76098e-18 3.75997e-18 3.75818e-18 3.75512e-18 3.75003e-18 3.74183e-18 3.72903e-18 3.70961e-18 3.68107e-18 3.64038e-18 3.58411e-18 3.50866e-18 3.41056e-18 3.28687e-18 3.13566e-18 2.95642e-18 2.75041e-18 2.52084e-18 2.27281e-18 2.013e-18 1.74914e-18 1.48933e-18 1.2413e-18 1.01173e-18 8.05721e-19 6.26478e-19 4.75266e-19 3.51579e-19 2.53478e-19 1.7803e-19 1.21762e-19 8.10673e-20 5.25255e-20 3.3111e-20 2.03028e-20 1.2107e-20 7.02016e-21 3.95752e-21 2.16876e-21 1.15523e-21 5.98078e-22 3.00914e-22 1.47129e-22 6.99031e-23 3.22715e-23 1.4476e-23 6.30908e-24 2.67153e-24 1.09904e-24 4.39257e-25 1.70553e-25 6.43316e-26 2.35722e-26 8.39025e-27 2.9009e-27 9.74221e-28 3.17784e-28 1.00679e-28 3.09779e-29 9.25662e-30 2.68603e-30 7.56833e-31 2.07055e-31 5.49964e-32 1.41809e-32 3.5494e-33 8.62261e-34 2.03285e-34 4.65046e-35 1.03218e-35 2.22235e-36 4.64089e-37 9.39817e-38 1.84526e-38 3.51199e-39 6.47795e-40 1.15772e-40 2.00414e-41 3.35751e-42 5.43704e-43 8.40779e-44 1.26117e-44 1.4013e-45 0 
0 1.12104e-44 7.70714e-44 5.03066e-43 3.14872e-42 1.90843e-41 1.12035e-40 6.37197e-40 3.51199e-39 1.87629e-38 9.71875e-38 4.88173e-37 2.37834e-36 1.12406e-35 5.15453e-35 2.29372e-34 9.90617e-34 4.1528e-33 1.69004e-32 6.67765e-32 2.56191e-31 9.54457e-31 3.45334e-30 1.21351e-29 4.14192e-29 1.37321e-28 4.42262e-28 1.38371e-27 4.20589e-27 1.24203e-26 3.56358e-26 9.93423e-26 2.69084e-25 7.08209e-25 1.81119e-24 4.50102e-24 1.08695e-23 2.5508e-23 5.81726e-23 1.2893e-22 2.77713e-22 5.81385e-22 1.18298e-21 2.33969e-21 4.49818e-21 8.40709e-21 1.52764e-20 2.69904e-20 4.63726e-20 7.74886e-20 1.25954e-19 1.99187e-19 3.06539e-19 4.59192e-19 6.69753e-19 9.51467e-19 1.31704e-18 1.77717e-18 2.33883e-18 3.00377e-18 3.76721e-18 4.61726e-18 5.53513e-18 6.49628e-18 7.47229e-18 8.43344e-18 9.35131e-18 1.02014e-17 1.09648e-17 1.16297e-17 1.21914e-17 1.26515e-17 1.30171e-17 1.32988e-17 1.35094e-17 1.3662e-17 1.37694e-17 1.38426e-17 1.38911e-17 1.39222e-17 1.39416e-17 1.39533e-17 1.39602e-17 1.39641e-17 1.39662e-17 1.39674e-17 1.3968e-17 1.39683e-17 1.39684e-17 1.39685e-17 1.39685e-17 1.39686e-17 1.39686e-17 1.39686e-17 1.39686e-17 1.39686e-17 1.39686e-17 1.39686e-17 1.39686e-17 1.39686e-17 1.39686e-17 1.39686e-17 1.39686e-17 1.39686e-17 1.39686e-17 1.39686e-17 1.39686e-17 1.39686e-17 1.39686e-17 1.39686e-17 1.39686e-17 1.39686e-17 1.39686e-17 1.39686e-17 1.39686e-17 1.39686e-17 1.39686e-17 1.39686e-17 1.39686e-17 1.39686e-17 1.39686e-17 1.39686e-17 1.39686e-17 1.39686e-17 1.39686e-17 1.39686e-17 1.39686e-17 1.39686e-17 1.39686e-17 1.39686e-17 1.39686e-17 1.39686e-17 1.39686e-17 1.39686e-17 1.39686e-17 1.39686e-17 1.39686e-17 1.39686e-17 1.39686e-17 1.39686e-17 1.39686e-17 1.39686e-17 1.39686e-17 1.39686e-17 1.39686e-17 1.39686e-17 1.39686e-17 1.39686e-17 1.39686e-17 1.39686e-17 1.39686e-17 1.39686e-17 1.39686e-17 1.39686e-17 1.39686e-17 1.39686e-17 1.39686e-17 1.39686e-17 1.39686e-17 1.39686e-17 1.39686e-17 1.39686e-17 1.39686e-17 1.39686e-17 1.39686e-17 1.39685e-17 1.39685e-17 1.39684e-17 1.39683e-17 1.3968e-17 1.39674e-17 1.39662e-17 1.39641e-17 1.39602e-17 1.39533e-17 1.39416e-17 1.39222e-17 1.38911e-17 1.38426e-17 1.37694e-17 1.3662e-17 1.35094e-17 1.32988e-17 1.30171e-17 1.26515e-17 1.21914e-17 1.16297e-17 1.09648e-17 1.02014e-17 9.35131e-18 8.43344e-18 7.47229e-18 6.49628e-18 5.53513e-18 4.61726e-18 3.76721e-18 3.00377e-18 2.33883e-18 1.77717e-18 1.31704e-18 9.51467e-19 6.69753e-19 4.59192e-19 3.06539e-19 1.99187e-19 1.25954e-19 7.74886e-20 4.63726e-20 2.69904e-20 1.52764e-20 8.40709e-21 4.49818e-21 2.33969e-21 1.18298e-21 5.81385e-22 2.77713e-22 1.2893e-22 5.81726e-23 2.5508e-23 1.08695e-23 4.50102e-24 1.81119e-24 7.08209e-25 2.69084e-25 9.93423e-26 3.56358e-26 1.24203e-26 4.20589e-27 1.38371e-27 4.42262e-28 1.37321e-28 4.14192e-29 1.21351e-29 3.45334e-30 9.54457e-31 2.56191e-31 6.67765e-32 1.69004e-32 4.1528e-33 9.90617e-34 2.29372e-34 5.15453e-35 1.12406e-35 2.37834e-36 4.88173e-37 9.71875e-38 1.87629e-38 3.51199e-39 6.37197e-40 1.12035e-40 1.90843e-41 3.14872e-42 5.03066e-43 7.70714e-44 1.12104e-44 0 