<?xml version="1.0"?>
<VTKFile type="ImageData" version="0.1" byte_order="LittleEndian">
  <ImageData WholeExtent="0 255 0 255 0 0" Origin="0 0 0" Spacing="1 1 1">
  <Piece Extent="0 255 0 255 0 0">
    <PointData>
      <DataArray type="Float32" Name="scalar_data" format="ascii" >0 0 0 0 0 0 0 0 0 0 0 0 0 0 0 0 0 0 0 0 0 0 0 0 0 0 0 0 0 0 0 0 0 0 0 0 0 0 0 0 0 0 0 0 0 0 0 0 0 0 0 0 0 0 0 0 0 0 0 0 0 0 0 0 0 0 0 0 0 0 0 0 0 0 0 0 0 0 0 0 0 0 0 0 0 0 0 0 0 0 0 0 0 0 0 0 0 0 0 0 0 0 0 0 0 0 0 0 0 0 0 0 0 0 0 0 0 0 0 0 0 0 0 0 0 0 0 0 0 0 0 0 0 0 0 0 0 0 0 0 0 0 0 0 0 0 0 0 0 0 0 0 0 0 0 0 0 0 0 0 0 0 0 0 0 0 0 0 0 0 0 0 0 0 0 0 0 0 0 0 0 0 0 0 0 0 0 0 0 0 0 0 0 0 0 0 0 0 0 0 0 0 0 0 0 0 0 0 0 0 0 0 0 0 0 0 0 0 0 0 0 0 0 0 0 0 0 0 0 0 0 0 0 0 0 0 0 0 0 0 0 0 0 0 0 0 0 0 0 0 0 0 0 0 0 0 
0 4.75173e-22 1.19293e-21 2.50775e-21 5.04377e-21 9.96063e-21 1.94271e-20 3.74719e-20 7.15011e-20 1.34978e-19 2.52092e-19 4.65807e-19 8.51532e-19 1.54008e-18 2.75572e-18 4.87838e-18 8.54405e-18 1.48048e-17 2.53799e-17 4.30456e-17 7.22305e-17 1.19913e-16 1.96957e-16 3.20064e-16 5.14594e-16 8.18578e-16 1.28833e-15 2.00618e-15 3.09098e-15 4.71204e-15 7.1075e-15 1.06079e-14 1.56657e-14 2.28923e-14 3.31025e-14 4.73667e-14 6.70716e-14 9.39876e-14 1.30342e-13 1.78893e-13 2.43006e-13 3.26718e-13 4.34793e-13 5.72753e-13 7.46881e-13 9.64185e-13 1.23232e-12 1.55944e-12 1.95404e-12 2.42466e-12 2.97962e-12 3.62664e-12 4.37249e-12 5.22255e-12 6.18044e-12 7.24764e-12 8.42318e-12 9.70343e-12 1.10819e-11 1.25495e-11 1.40941e-11 1.57015e-11 1.73553e-11 1.90375e-11 2.07294e-11 2.24116e-11 2.40654e-11 2.56728e-11 2.72175e-11 2.8685e-11 3.00635e-11 3.13438e-11 3.25193e-11 3.35865e-11 3.45444e-11 3.53944e-11 3.61403e-11 3.67873e-11 3.73423e-11 3.78129e-11 3.82075e-11 3.85346e-11 3.88027e-11 3.90201e-11 3.91942e-11 3.93321e-11 3.94402e-11 3.95239e-11 3.9588e-11 3.96366e-11 3.96729e-11 3.96999e-11 3.97196e-11 3.97338e-11 3.9744e-11 3.97513e-11 3.97563e-11 3.97598e-11 3.97622e-11 3.97638e-11 3.97649e-11 3.97656e-11 3.97661e-11 3.97664e-11 3.97666e-11 3.97667e-11 3.97668e-11 3.97669e-11 3.97669e-11 3.97669e-11 3.97669e-11 3.97669e-11 3.97669e-11 3.97669e-11 3.97669e-11 3.97669e-11 3.97669e-11 3.97669e-11 3.97669e-11 3.97669e-11 3.97669e-11 3.97669e-11 3.97669e-11 3.97669e-11 3.97669e-11 3.97669e-11 3.97669e-11 3.97669e-11 3.97669e-11 3.97669e-11 3.97669e-11 3.97669e-11 3.97669e-11 3.97669e-11 3.97669e-11 3.97669e-11 3.97669e-11 3.97669e-11 3.97669e-11 3.97669e-11 3.97669e-11 3.97669e-11 3.97669e-11 3.97669e-11 3.97669e-11 3.97669e-11 3.97669e-11 3.97669e-11 3.97669e-11 3.97668e-11 3.97667e-11 3.97666e-11 3.97664e-11 3.97661e-11 3.97656e-11 3.97649e-11 3.97638e-11 3.97622e-11 3.97598e-11 3.97563e-11 3.97513e-11 3.9744e-11 3.97338e-11 3.97196e-11 3.96999e-11 3.96729e-11 3.96366e-11 3.9588e-11 3.95239e-11 3.94402e-11 3.93321e-11 3.91942e-11 3.90201e-11 3.88027e-11 3.85346e-11 3.82075e-11 3.78129e-11 3.73423e-11 3.67873e-11 3.61403e-11 3.53944e-11 3.45444e-11 3.35865e-11 3.25193e-11 3.13438e-11 3.00635e-11 2.8685e-11 2.72175e-11 2.56728e-11 2.40654e-11 2.24116e-11 2.07294e-11 1.90375e-11 1.73553e-11 1.57015e-11 1.40941e-11 1.25495e-11 1.10819e-11 9.70343e-12 8.42318e-12 7.24764e-12 6.18044e-12 5.22255e-12 4.37249e-12 3.62664e-12 2.97962e-12 2.42466e-12 1.95404e-12 1.55944e-12 1.23232e-12 9.64185e-13 7.46881e-13 5.72753e-13 4.34793e-13 3.26718e-13 2.43006e-13 1.78893e-13 1.30342e-13 9.39876e-14 6.70716e-14 4.73667e-14 3.31025e-14 2.28923e-14 1.56657e-14 1.06079e-14 7.1075e-15 4.71204e-15 3.09098e-15 2.00618e-15 1.28833e-15 8.18578e-16 5.14594e-16 3.20064e-16 1.96957e-16 1.19913e-16 7.22305e-17 4.30456e-17 2.53799e-17 1.48048e-17 8.54405e-18 4.87838e-18 2.75572e-18 1.54008e-18 8.51532e-19 4.65807e-19 2.52092e-19 1.34978e-19 7.15011e-20 3.74719e-20 1.94271e-20 9.96063e-21 5.04377e-21 2.50775e-21 1.19293e-21 4.75173e-22 0 
0 1.19293e-21 2.99351e-21 6.28902e-21 1.26404e-20 2.49454e-20 4.86197e-20 9.3716e-20 1.78703e-19 3.37129e-19 6.29238e-19 1.16195e-18 2.12283e-18 3.83703e-18 6.86168e-18 1.214e-17 2.12501e-17 3.68008e-17 6.30536e-17 1.06885e-16 1.79261e-16 2.9745e-16 4.88319e-16 7.93157e-16 1.27463e-15 2.02666e-15 3.18826e-15 4.96259e-15 7.64277e-15 1.16462e-14 1.75599e-14 2.61978e-14 3.86743e-14 5.64945e-14 8.16629e-14 1.16813e-13 1.65353e-13 2.31636e-13 3.21135e-13 4.40625e-13 5.98371e-13 8.04283e-13 1.07005e-12 1.40923e-12 1.83723e-12 2.37123e-12 3.02999e-12 3.83354e-12 4.80263e-12 5.95823e-12 7.32068e-12 8.90893e-12 1.07395e-11 1.28256e-11 1.51759e-11 1.77943e-11 2.06781e-11 2.38186e-11 2.71998e-11 3.07992e-11 3.45874e-11 3.85295e-11 4.25852e-11 4.67106e-11 5.08595e-11 5.49849e-11 5.90406e-11 6.29826e-11 6.67709e-11 7.03703e-11 7.37516e-11 7.6892e-11 7.97758e-11 8.23942e-11 8.47446e-11 8.68306e-11 8.86612e-11 9.02494e-11 9.16119e-11 9.27675e-11 9.37366e-11 9.45401e-11 9.51989e-11 9.57329e-11 9.61609e-11 9.65e-11 9.67658e-11 9.69717e-11 9.71295e-11 9.7249e-11 9.73385e-11 9.74048e-11 9.74533e-11 9.74884e-11 9.75136e-11 9.75314e-11 9.75439e-11 9.75525e-11 9.75584e-11 9.75625e-11 9.75651e-11 9.75669e-11 9.75681e-11 9.75688e-11 9.75693e-11 9.75696e-11 9.75698e-11 9.75699e-11 9.757e-11 9.757e-11 9.75701e-11 9.75701e-11 9.75701e-11 9.75701e-11 9.75701e-11 9.75701e-11 9.75701e-11 9.75701e-11 9.75701e-11 9.75701e-11 9.75701e-11 9.75701e-11 9.75701e-11 9.75701e-11 9.75701e-11 9.75701e-11 9.75701e-11 9.75701e-11 9.75701e-11 9.75701e-11 9.75701e-11 9.75701e-11 9.75701e-11 9.75701e-11 9.75701e-11 9.75701e-11 9.75701e-11 9.75701e-11 9.75701e-11 9.75701e-11 9.75701e-11 9.75701e-11 9.75701e-11 9.75701e-11 9.75701e-11 9.75701e-11 9.757e-11 9.757e-11 9.75699e-11 9.75698e-11 9.75696e-11 9.75693e-11 9.75688e-11 9.75681e-11 9.75669e-11 9.75651e-11 9.75625e-11 9.75584e-11 9.75525e-11 9.75439e-11 9.75314e-11 9.75136e-11 9.74884e-11 9.74533e-11 9.74048e-11 9.73385e-11 9.7249e-11 9.71295e-11 9.69717e-11 9.67658e-11 9.65e-11 9.61609e-11 9.57329e-11 9.51989e-11 9.45401e-11 9.37366e-11 9.27675e-11 9.16119e-11 9.02494e-11 8.86612e-11 8.68306e-11 8.47446e-11 8.23942e-11 7.97758e-11 7.6892e-11 7.37516e-11 7.03703e-11 6.67709e-11 6.29826e-11 5.90406e-11 5.49849e-11 5.08595e-11 4.67106e-11 4.25852e-11 3.85295e-11 3.45874e-11 3.07992e-11 2.71998e-11 2.38186e-11 2.06781e-11 1.77943e-11 1.51759e-11 1.28256e-11 1.07395e-11 8.90893e-12 7.32068e-12 5.95823e-12 4.80263e-12 3.83354e-12 3.02999e-12 2.37123e-12 1.83723e-12 1.40923e-12 1.07005e-12 8.04283e-13 5.98371e-13 4.40625e-13 3.21135e-13 2.31636e-13 1.65353e-13 1.16813e-13 8.16629e-14 5.64945e-14 3.86743e-14 2.61978e-14 1.75599e-14 1.16462e-14 7.64277e-15 4.96259e-15 3.18826e-15 2.02666e-15 1.27463e-15 7.93157e-16 4.88319e-16 2.9745e-16 1.79261e-16 1.06885e-16 6.30536e-17 3.68008e-17 2.12501e-17 1.214e-17 6.86168e-18 3.83703e-18 2.12283e-18 1.16195e-18 6.29238e-19 3.37129e-19 1.78703e-19 9.3716e-20 4.86197e-20 2.49454e-20 1.26404e-20 6.28902e-21 2.99351e-21 1.19293e-21 0 
0 2.50775e-21 6.28902e-21 1.32015e-20 2.65096e-20 5.22668e-20 1.01775e-19 1.95995e-19 3.73396e-19 7.038e-19 1.31247e-18 2.42154e-18 4.42033e-18 7.98325e-18 1.42648e-17 2.5218e-17 4.41082e-17 7.63288e-17 1.30683e-16 2.21369e-16 3.71003e-16 6.15185e-16 1.00926e-15 1.63823e-15 2.631e-15 4.18068e-15 6.57289e-15 1.02248e-14 1.57379e-14 2.39684e-14 3.61192e-14 5.38582e-14 7.94673e-14 1.16026e-13 1.67636e-13 2.39679e-13 3.39123e-13 4.74858e-13 6.58056e-13 9.02548e-13 1.22519e-12 1.64619e-12 2.18939e-12 2.88238e-12 3.75656e-12 4.84692e-12 6.19164e-12 7.83144e-12 9.80857e-12 1.21656e-11 1.4944e-11 1.81821e-11 2.19135e-11 2.61649e-11 3.09543e-11 3.62888e-11 4.21635e-11 4.85602e-11 5.54466e-11 6.27767e-11 7.04909e-11 7.85177e-11 8.67757e-11 9.51755e-11 1.03623e-10 1.12023e-10 1.20281e-10 1.28308e-10 1.36022e-10 1.43352e-10 1.50238e-10 1.56635e-10 1.6251e-10 1.67844e-10 1.72634e-10 1.76885e-10 1.80616e-10 1.83855e-10 1.86633e-10 1.8899e-10 1.90967e-10 1.92607e-10 1.93952e-10 1.95042e-10 1.95916e-10 1.96609e-10 1.97152e-10 1.97573e-10 1.97896e-10 1.9814e-10 1.98324e-10 1.98459e-10 1.98559e-10 1.98631e-10 1.98683e-10 1.98719e-10 1.98745e-10 1.98762e-10 1.98775e-10 1.98783e-10 1.98788e-10 1.98792e-10 1.98794e-10 1.98796e-10 1.98797e-10 1.98798e-10 1.98798e-10 1.98798e-10 1.98798e-10 1.98798e-10 1.98798e-10 1.98799e-10 1.98799e-10 1.98799e-10 1.98799e-10 1.98799e-10 1.98799e-10 1.98799e-10 1.98799e-10 1.98799e-10 1.98799e-10 1.98799e-10 1.98799e-10 1.98799e-10 1.98799e-10 1.98799e-10 1.98799e-10 1.98799e-10 1.98799e-10 1.98799e-10 1.98799e-10 1.98799e-10 1.98799e-10 1.98799e-10 1.98799e-10 1.98799e-10 1.98799e-10 1.98799e-10 1.98799e-10 1.98799e-10 1.98799e-10 1.98799e-10 1.98799e-10 1.98799e-10 1.98799e-10 1.98798e-10 1.98798e-10 1.98798e-10 1.98798e-10 1.98798e-10 1.98798e-10 1.98797e-10 1.98796e-10 1.98794e-10 1.98792e-10 1.98788e-10 1.98783e-10 1.98775e-10 1.98762e-10 1.98745e-10 1.98719e-10 1.98683e-10 1.98631e-10 1.98559e-10 1.98459e-10 1.98324e-10 1.9814e-10 1.97896e-10 1.97573e-10 1.97152e-10 1.96609e-10 1.95916e-10 1.95042e-10 1.93952e-10 1.92607e-10 1.90967e-10 1.8899e-10 1.86633e-10 1.83855e-10 1.80616e-10 1.76885e-10 1.72634e-10 1.67844e-10 1.6251e-10 1.56635e-10 1.50238e-10 1.43352e-10 1.36022e-10 1.28308e-10 1.20281e-10 1.12023e-10 1.03623e-10 9.51755e-11 8.67757e-11 7.85177e-11 7.04909e-11 6.27767e-11 5.54466e-11 4.85602e-11 4.21635e-11 3.62888e-11 3.09543e-11 2.61649e-11 2.19135e-11 1.81821e-11 1.4944e-11 1.21656e-11 9.80857e-12 7.83144e-12 6.19164e-12 4.84692e-12 3.75656e-12 2.88238e-12 2.18939e-12 1.64619e-12 1.22519e-12 9.02548e-13 6.58056e-13 4.74858e-13 3.39123e-13 2.39679e-13 1.67636e-13 1.16026e-13 7.94673e-14 5.38582e-14 3.61192e-14 2.39684e-14 1.57379e-14 1.02248e-14 6.57289e-15 4.18068e-15 2.631e-15 1.63823e-15 1.00926e-15 6.15185e-16 3.71003e-16 2.21369e-16 1.30683e-16 7.63288e-17 4.41082e-17 2.5218e-17 1.42648e-17 7.98325e-18 4.42033e-18 2.42154e-18 1.31247e-18 7.038e-19 3.73396e-19 1.95995e-19 1.01775e-19 5.22668e-20 2.65096e-20 1.32015e-20 6.28902e-21 2.50775e-21 0 
0 5.04377e-21 1.26404e-20 2.65096e-20 5.31791e-20 1.0474e-19 2.03743e-19 3.9196e-19 7.45989e-19 1.40471e-18 2.61702e-18 4.8239e-18 8.79749e-18 1.58741e-17 2.83392e-17 5.00558e-17 8.74763e-17 1.5125e-16 2.58745e-16 4.37946e-16 7.33401e-16 1.21517e-15 1.9921e-15 3.23121e-15 5.18565e-15 8.23431e-15 1.29373e-14 2.0112e-14 3.09364e-14 4.7086e-14 7.09134e-14 1.05678e-13 1.55839e-13 2.27407e-13 3.28383e-13 4.69265e-13 6.63635e-13 9.28807e-13 1.28654e-12 1.76374e-12 2.39321e-12 3.21423e-12 4.27314e-12 5.62354e-12 7.32641e-12 9.44966e-12 1.20674e-11 1.52585e-11 1.9105e-11 2.36894e-11 2.90918e-11 3.53867e-11 4.2639e-11 5.09003e-11 6.02052e-11 7.05675e-11 8.19775e-11 9.43995e-11 1.07771e-10 1.22003e-10 1.36979e-10 1.52562e-10 1.68592e-10 1.84897e-10 2.01295e-10 2.176e-10 2.3363e-10 2.49213e-10 2.64189e-10 2.78421e-10 2.91792e-10 3.04214e-10 3.15624e-10 3.25987e-10 3.35291e-10 3.43553e-10 3.50805e-10 3.571e-10 3.62502e-10 3.67087e-10 3.70933e-10 3.74124e-10 3.76742e-10 3.78865e-10 3.80568e-10 3.81919e-10 3.82978e-10 3.83799e-10 3.84428e-10 3.84905e-10 3.85263e-10 3.85528e-10 3.85723e-10 3.85863e-10 3.85964e-10 3.86036e-10 3.86086e-10 3.86121e-10 3.86145e-10 3.86161e-10 3.86172e-10 3.86179e-10 3.86184e-10 3.86187e-10 3.86189e-10 3.8619e-10 3.86191e-10 3.86191e-10 3.86191e-10 3.86192e-10 3.86192e-10 3.86192e-10 3.86192e-10 3.86192e-10 3.86192e-10 3.86192e-10 3.86192e-10 3.86192e-10 3.86192e-10 3.86192e-10 3.86192e-10 3.86192e-10 3.86192e-10 3.86192e-10 3.86192e-10 3.86192e-10 3.86192e-10 3.86192e-10 3.86192e-10 3.86192e-10 3.86192e-10 3.86192e-10 3.86192e-10 3.86192e-10 3.86192e-10 3.86192e-10 3.86192e-10 3.86192e-10 3.86192e-10 3.86192e-10 3.86192e-10 3.86192e-10 3.86192e-10 3.86192e-10 3.86192e-10 3.86192e-10 3.86192e-10 3.86191e-10 3.86191e-10 3.86191e-10 3.8619e-10 3.86189e-10 3.86187e-10 3.86184e-10 3.86179e-10 3.86172e-10 3.86161e-10 3.86145e-10 3.86121e-10 3.86086e-10 3.86036e-10 3.85964e-10 3.85863e-10 3.85723e-10 3.85528e-10 3.85263e-10 3.84905e-10 3.84428e-10 3.83799e-10 3.82978e-10 3.81919e-10 3.80568e-10 3.78865e-10 3.76742e-10 3.74124e-10 3.70933e-10 3.67087e-10 3.62502e-10 3.571e-10 3.50805e-10 3.43553e-10 3.35291e-10 3.25987e-10 3.15624e-10 3.04214e-10 2.91792e-10 2.78421e-10 2.64189e-10 2.49213e-10 2.3363e-10 2.176e-10 2.01295e-10 1.84897e-10 1.68592e-10 1.52562e-10 1.36979e-10 1.22003e-10 1.07771e-10 9.43995e-11 8.19775e-11 7.05675e-11 6.02052e-11 5.09003e-11 4.2639e-11 3.53867e-11 2.90918e-11 2.36894e-11 1.9105e-11 1.52585e-11 1.20674e-11 9.44966e-12 7.32641e-12 5.62354e-12 4.27314e-12 3.21423e-12 2.39321e-12 1.76374e-12 1.28654e-12 9.28807e-13 6.63635e-13 4.69265e-13 3.28383e-13 2.27407e-13 1.55839e-13 1.05678e-13 7.09134e-14 4.7086e-14 3.09364e-14 2.0112e-14 1.29373e-14 8.23431e-15 5.18565e-15 3.23121e-15 1.9921e-15 1.21517e-15 7.33401e-16 4.37946e-16 2.58745e-16 1.5125e-16 8.74763e-17 5.00558e-17 2.83392e-17 1.58741e-17 8.79749e-18 4.8239e-18 2.61702e-18 1.40471e-18 7.45989e-19 3.9196e-19 2.03743e-19 1.0474e-19 5.31791e-20 2.65096e-20 1.26404e-20 5.04377e-21 0 
0 9.96063e-21 2.49454e-20 5.22668e-20 1.0474e-19 2.06075e-19 4.00437e-19 7.69559e-19 1.46314e-18 2.75234e-18 5.12265e-18 9.43333e-18 1.71875e-17 3.0984e-17 5.52635e-17 9.75252e-17 1.70283e-16 2.94174e-16 5.02824e-16 8.50367e-16 1.42291e-15 2.35577e-15 3.85899e-15 6.25464e-15 1.00305e-14 1.59161e-14 2.49891e-14 3.88213e-14 5.96757e-14 9.07698e-14 1.36618e-13 2.03471e-13 2.99872e-13 4.37338e-13 6.31184e-13 9.01493e-13 1.27423e-12 1.7825e-12 2.46784e-12 3.38166e-12 4.58651e-12 6.15735e-12 8.18249e-12 1.07641e-11 1.40183e-11 1.80745e-11 2.30736e-11 2.91659e-11 3.65071e-11 4.52541e-11 5.55592e-11 6.75638e-11 8.1391e-11 9.71388e-11 1.14872e-10 1.34618e-10 1.56357e-10 1.8002e-10 2.0549e-10 2.32595e-10 2.61115e-10 2.90789e-10 3.21313e-10 3.5236e-10 3.83584e-10 4.14631e-10 4.45156e-10 4.74829e-10 5.0335e-10 5.30454e-10 5.55924e-10 5.79588e-10 6.01326e-10 6.21072e-10 6.38805e-10 6.54553e-10 6.6838e-10 6.80385e-10 6.9069e-10 6.99437e-10 7.06778e-10 7.12871e-10 7.1787e-10 7.21926e-10 7.2518e-10 7.27762e-10 7.29787e-10 7.31358e-10 7.32562e-10 7.33476e-10 7.34162e-10 7.3467e-10 7.35043e-10 7.35313e-10 7.35507e-10 7.35644e-10 7.35741e-10 7.35808e-10 7.35853e-10 7.35884e-10 7.35905e-10 7.35919e-10 7.35928e-10 7.35934e-10 7.35938e-10 7.3594e-10 7.35942e-10 7.35943e-10 7.35943e-10 7.35944e-10 7.35944e-10 7.35944e-10 7.35944e-10 7.35944e-10 7.35944e-10 7.35944e-10 7.35944e-10 7.35944e-10 7.35944e-10 7.35944e-10 7.35944e-10 7.35944e-10 7.35944e-10 7.35944e-10 7.35944e-10 7.35944e-10 7.35944e-10 7.35944e-10 7.35944e-10 7.35944e-10 7.35944e-10 7.35944e-10 7.35944e-10 7.35944e-10 7.35944e-10 7.35944e-10 7.35944e-10 7.35944e-10 7.35944e-10 7.35944e-10 7.35944e-10 7.35944e-10 7.35944e-10 7.35944e-10 7.35944e-10 7.35944e-10 7.35944e-10 7.35943e-10 7.35943e-10 7.35942e-10 7.3594e-10 7.35938e-10 7.35934e-10 7.35928e-10 7.35919e-10 7.35905e-10 7.35884e-10 7.35853e-10 7.35808e-10 7.35741e-10 7.35644e-10 7.35507e-10 7.35313e-10 7.35043e-10 7.3467e-10 7.34162e-10 7.33476e-10 7.32562e-10 7.31358e-10 7.29787e-10 7.27762e-10 7.2518e-10 7.21926e-10 7.1787e-10 7.12871e-10 7.06778e-10 6.99437e-10 6.9069e-10 6.80385e-10 6.6838e-10 6.54553e-10 6.38805e-10 6.21072e-10 6.01326e-10 5.79588e-10 5.55924e-10 5.30454e-10 5.0335e-10 4.74829e-10 4.45156e-10 4.14631e-10 3.83584e-10 3.5236e-10 3.21313e-10 2.90789e-10 2.61115e-10 2.32595e-10 2.0549e-10 1.8002e-10 1.56357e-10 1.34618e-10 1.14872e-10 9.71388e-11 8.1391e-11 6.75638e-11 5.55592e-11 4.52541e-11 3.65071e-11 2.91659e-11 2.30736e-11 1.80745e-11 1.40183e-11 1.07641e-11 8.18249e-12 6.15735e-12 4.58651e-12 3.38166e-12 2.46784e-12 1.7825e-12 1.27423e-12 9.01493e-13 6.31184e-13 4.37338e-13 2.99872e-13 2.03471e-13 1.36618e-13 9.07698e-14 5.96757e-14 3.88213e-14 2.49891e-14 1.59161e-14 1.00305e-14 6.25464e-15 3.85899e-15 2.35577e-15 1.42291e-15 8.50367e-16 5.02824e-16 2.94174e-16 1.70283e-16 9.75252e-17 5.52635e-17 3.0984e-17 1.71875e-17 9.43333e-18 5.12265e-18 2.75234e-18 1.46314e-18 7.69559e-19 4.00437e-19 2.06075e-19 1.0474e-19 5.22668e-20 2.49454e-20 9.96063e-21 0 
0 1.94271e-20 4.86197e-20 1.01775e-19 2.03743e-19 4.00437e-19 7.77297e-19 1.49226e-18 2.83429e-18 5.32629e-18 9.90351e-18 1.82196e-17 3.31646e-17 5.97305e-17 1.06439e-16 1.87669e-16 3.27391e-16 5.65103e-16 9.65106e-16 1.63083e-15 2.72667e-15 4.51074e-15 7.38339e-15 1.1958e-14 1.9163e-14 3.03857e-14 4.7674e-14 7.40128e-14 1.13697e-13 1.72828e-13 2.59963e-13 3.86941e-13 5.69934e-13 8.30728e-13 1.19828e-12 1.71054e-12 2.41656e-12 3.37879e-12 4.67565e-12 6.40403e-12 8.68187e-12 1.16504e-11 1.54758e-11 2.03506e-11 2.64931e-11 3.41466e-11 4.35761e-11 5.5064e-11 6.89028e-11 8.5387e-11 1.04803e-10 1.27414e-10 1.53453e-10 1.83103e-10 2.16485e-10 2.53649e-10 2.94556e-10 3.39081e-10 3.86998e-10 4.37986e-10 4.91634e-10 5.47445e-10 6.04855e-10 6.63247e-10 7.2197e-10 7.80361e-10 8.37772e-10 8.93583e-10 9.47231e-10 9.98219e-10 1.04614e-09 1.09066e-09 1.13157e-09 1.16873e-09 1.20211e-09 1.23176e-09 1.2578e-09 1.28041e-09 1.29983e-09 1.31631e-09 1.33015e-09 1.34164e-09 1.35107e-09 1.35872e-09 1.36487e-09 1.36974e-09 1.37357e-09 1.37654e-09 1.37881e-09 1.38054e-09 1.38184e-09 1.3828e-09 1.38351e-09 1.38402e-09 1.38439e-09 1.38465e-09 1.38483e-09 1.38496e-09 1.38504e-09 1.3851e-09 1.38514e-09 1.38517e-09 1.38519e-09 1.3852e-09 1.38521e-09 1.38521e-09 1.38521e-09 1.38521e-09 1.38522e-09 1.38522e-09 1.38522e-09 1.38522e-09 1.38522e-09 1.38522e-09 1.38522e-09 1.38522e-09 1.38522e-09 1.38522e-09 1.38522e-09 1.38522e-09 1.38522e-09 1.38522e-09 1.38522e-09 1.38522e-09 1.38522e-09 1.38522e-09 1.38522e-09 1.38522e-09 1.38522e-09 1.38522e-09 1.38522e-09 1.38522e-09 1.38522e-09 1.38522e-09 1.38522e-09 1.38522e-09 1.38522e-09 1.38522e-09 1.38522e-09 1.38522e-09 1.38522e-09 1.38522e-09 1.38522e-09 1.38522e-09 1.38522e-09 1.38522e-09 1.38522e-09 1.38522e-09 1.38521e-09 1.38521e-09 1.38521e-09 1.38521e-09 1.3852e-09 1.38519e-09 1.38517e-09 1.38514e-09 1.3851e-09 1.38504e-09 1.38496e-09 1.38483e-09 1.38465e-09 1.38439e-09 1.38402e-09 1.38351e-09 1.3828e-09 1.38184e-09 1.38054e-09 1.37881e-09 1.37654e-09 1.37357e-09 1.36974e-09 1.36487e-09 1.35872e-09 1.35107e-09 1.34164e-09 1.33015e-09 1.31631e-09 1.29983e-09 1.28041e-09 1.2578e-09 1.23176e-09 1.20211e-09 1.16873e-09 1.13157e-09 1.09066e-09 1.04614e-09 9.98219e-10 9.47231e-10 8.93583e-10 8.37772e-10 7.80361e-10 7.2197e-10 6.63247e-10 6.04855e-10 5.47445e-10 4.91634e-10 4.37986e-10 3.86998e-10 3.39081e-10 2.94556e-10 2.53649e-10 2.16485e-10 1.83103e-10 1.53453e-10 1.27414e-10 1.04803e-10 8.5387e-11 6.89028e-11 5.5064e-11 4.35761e-11 3.41466e-11 2.64931e-11 2.03506e-11 1.54758e-11 1.16504e-11 8.68187e-12 6.40403e-12 4.67565e-12 3.37879e-12 2.41656e-12 1.71054e-12 1.19828e-12 8.30728e-13 5.69934e-13 3.86941e-13 2.59963e-13 1.72828e-13 1.13697e-13 7.40128e-14 4.7674e-14 3.03857e-14 1.9163e-14 1.1958e-14 7.38339e-15 4.51074e-15 2.72667e-15 1.63083e-15 9.65106e-16 5.65103e-16 3.27391e-16 1.87669e-16 1.06439e-16 5.97305e-17 3.31646e-17 1.82196e-17 9.90351e-18 5.32629e-18 2.83429e-18 1.49226e-18 7.77297e-19 4.00437e-19 2.03743e-19 1.01775e-19 4.86197e-20 1.94271e-20 0 
0 3.74719e-20 9.3716e-20 1.95995e-19 3.9196e-19 7.69559e-19 1.49226e-18 2.8619e-18 5.43023e-18 1.01946e-17 1.8937e-17 3.48054e-17 6.3296e-17 1.13893e-16 2.02775e-16 3.57208e-16 6.22618e-16 1.07378e-15 1.83233e-15 3.09376e-15 5.16851e-15 8.54367e-15 1.39741e-14 2.26156e-14 3.62158e-14 5.7385e-14 8.99735e-14 1.39589e-13 2.14294e-13 3.25539e-13 4.89364e-13 7.27959e-13 1.07161e-12 1.56108e-12 2.25056e-12 3.21097e-12 4.53398e-12 6.33624e-12 8.76407e-12 1.19983e-11 1.62588e-11 2.18088e-11 2.89582e-11 3.8065e-11 4.95361e-11 6.38238e-11 8.14214e-11 1.02853e-10 1.28664e-10 1.594e-10 1.95592e-10 2.37732e-10 2.86248e-10 3.41481e-10 4.03655e-10 4.72859e-10 5.49024e-10 6.31912e-10 7.21105e-10 8.16006e-10 9.15849e-10 1.01971e-09 1.12655e-09 1.2352e-09 1.34447e-09 1.45313e-09 1.55997e-09 1.66383e-09 1.76367e-09 1.85857e-09 1.94777e-09 2.03065e-09 2.10682e-09 2.17602e-09 2.2382e-09 2.29343e-09 2.34195e-09 2.38409e-09 2.42028e-09 2.45101e-09 2.47682e-09 2.49826e-09 2.51585e-09 2.53014e-09 2.54161e-09 2.55072e-09 2.55787e-09 2.56342e-09 2.56768e-09 2.57091e-09 2.57334e-09 2.57514e-09 2.57647e-09 2.57743e-09 2.57812e-09 2.57861e-09 2.57895e-09 2.57919e-09 2.57935e-09 2.57946e-09 2.57954e-09 2.57959e-09 2.57962e-09 2.57964e-09 2.57966e-09 2.57966e-09 2.57967e-09 2.57967e-09 2.57968e-09 2.57968e-09 2.57968e-09 2.57968e-09 2.57968e-09 2.57968e-09 2.57968e-09 2.57968e-09 2.57968e-09 2.57968e-09 2.57968e-09 2.57968e-09 2.57968e-09 2.57968e-09 2.57968e-09 2.57968e-09 2.57968e-09 2.57968e-09 2.57968e-09 2.57968e-09 2.57968e-09 2.57968e-09 2.57968e-09 2.57968e-09 2.57968e-09 2.57968e-09 2.57968e-09 2.57968e-09 2.57968e-09 2.57968e-09 2.57968e-09 2.57968e-09 2.57968e-09 2.57968e-09 2.57968e-09 2.57968e-09 2.57968e-09 2.57968e-09 2.57968e-09 2.57968e-09 2.57967e-09 2.57967e-09 2.57966e-09 2.57966e-09 2.57964e-09 2.57962e-09 2.57959e-09 2.57954e-09 2.57946e-09 2.57935e-09 2.57919e-09 2.57895e-09 2.57861e-09 2.57812e-09 2.57743e-09 2.57647e-09 2.57514e-09 2.57334e-09 2.57091e-09 2.56768e-09 2.56342e-09 2.55787e-09 2.55072e-09 2.54161e-09 2.53014e-09 2.51585e-09 2.49826e-09 2.47682e-09 2.45101e-09 2.42028e-09 2.38409e-09 2.34195e-09 2.29343e-09 2.2382e-09 2.17602e-09 2.10682e-09 2.03065e-09 1.94777e-09 1.85857e-09 1.76367e-09 1.66383e-09 1.55997e-09 1.45313e-09 1.34447e-09 1.2352e-09 1.12655e-09 1.01971e-09 9.15849e-10 8.16006e-10 7.21105e-10 6.31912e-10 5.49024e-10 4.72859e-10 4.03655e-10 3.41481e-10 2.86248e-10 2.37732e-10 1.95592e-10 1.594e-10 1.28664e-10 1.02853e-10 8.14214e-11 6.38238e-11 4.95361e-11 3.8065e-11 2.89582e-11 2.18088e-11 1.62588e-11 1.19983e-11 8.76407e-12 6.33624e-12 4.53398e-12 3.21097e-12 2.25056e-12 1.56108e-12 1.07161e-12 7.27959e-13 4.89364e-13 3.25539e-13 2.14294e-13 1.39589e-13 8.99735e-14 5.7385e-14 3.62158e-14 2.26156e-14 1.39741e-14 8.54367e-15 5.16851e-15 3.09376e-15 1.83233e-15 1.07378e-15 6.22618e-16 3.57208e-16 2.02775e-16 1.13893e-16 6.3296e-17 3.48054e-17 1.8937e-17 1.01946e-17 5.43023e-18 2.8619e-18 1.49226e-18 7.69559e-19 3.9196e-19 1.95995e-19 9.3716e-20 3.74719e-20 0 
0 7.15011e-20 1.78703e-19 3.73396e-19 7.45989e-19 1.46314e-18 2.83429e-18 5.43023e-18 1.02932e-17 1.93054e-17 3.58267e-17 6.57863e-17 1.19527e-16 2.1488e-16 3.82232e-16 6.72756e-16 1.17163e-15 2.01893e-15 3.44236e-15 5.80755e-15 9.69471e-15 1.60134e-14 2.61722e-14 4.23261e-14 6.77315e-14 1.07249e-13 1.68041e-13 2.60535e-13 3.99714e-13 6.06836e-13 9.11672e-13 1.35537e-12 1.99407e-12 2.9033e-12 4.18334e-12 5.96548e-12 8.41921e-12 1.17602e-11 1.62587e-11 2.22487e-11 3.01361e-11 4.04064e-11 5.36311e-11 7.04703e-11 9.16734e-11 1.18074e-10 1.5058e-10 1.90156e-10 2.37804e-10 2.94529e-10 3.61307e-10 4.39041e-10 5.28517e-10 6.30359e-10 7.44979e-10 8.72537e-10 1.01291e-09 1.16564e-09 1.32998e-09 1.50482e-09 1.68875e-09 1.88007e-09 2.07686e-09 2.277e-09 2.47826e-09 2.6784e-09 2.87519e-09 3.06651e-09 3.25044e-09 3.42528e-09 3.58961e-09 3.74235e-09 3.88272e-09 4.01028e-09 4.1249e-09 4.22674e-09 4.31622e-09 4.39395e-09 4.46073e-09 4.51745e-09 4.5651e-09 4.60468e-09 4.63718e-09 4.66359e-09 4.68479e-09 4.70163e-09 4.71485e-09 4.72512e-09 4.73301e-09 4.739e-09 4.7435e-09 4.74684e-09 4.74929e-09 4.75108e-09 4.75236e-09 4.75327e-09 4.7539e-09 4.75435e-09 4.75465e-09 4.75486e-09 4.755e-09 4.75509e-09 4.75515e-09 4.75519e-09 4.75522e-09 4.75523e-09 4.75524e-09 4.75525e-09 4.75525e-09 4.75526e-09 4.75526e-09 4.75526e-09 4.75526e-09 4.75526e-09 4.75526e-09 4.75526e-09 4.75526e-09 4.75526e-09 4.75526e-09 4.75526e-09 4.75526e-09 4.75526e-09 4.75526e-09 4.75526e-09 4.75526e-09 4.75526e-09 4.75526e-09 4.75526e-09 4.75526e-09 4.75526e-09 4.75526e-09 4.75526e-09 4.75526e-09 4.75526e-09 4.75526e-09 4.75526e-09 4.75526e-09 4.75526e-09 4.75526e-09 4.75526e-09 4.75526e-09 4.75526e-09 4.75526e-09 4.75526e-09 4.75526e-09 4.75526e-09 4.75526e-09 4.75525e-09 4.75525e-09 4.75524e-09 4.75523e-09 4.75522e-09 4.75519e-09 4.75515e-09 4.75509e-09 4.755e-09 4.75486e-09 4.75465e-09 4.75435e-09 4.7539e-09 4.75327e-09 4.75236e-09 4.75108e-09 4.74929e-09 4.74684e-09 4.7435e-09 4.739e-09 4.73301e-09 4.72512e-09 4.71485e-09 4.70163e-09 4.68479e-09 4.66359e-09 4.63718e-09 4.60468e-09 4.5651e-09 4.51745e-09 4.46073e-09 4.39395e-09 4.31622e-09 4.22674e-09 4.1249e-09 4.01028e-09 3.88272e-09 3.74235e-09 3.58961e-09 3.42528e-09 3.25044e-09 3.06651e-09 2.87519e-09 2.6784e-09 2.47826e-09 2.277e-09 2.07686e-09 1.88007e-09 1.68875e-09 1.50482e-09 1.32998e-09 1.16564e-09 1.01291e-09 8.72537e-10 7.44979e-10 6.30359e-10 5.28517e-10 4.39041e-10 3.61307e-10 2.94529e-10 2.37804e-10 1.90156e-10 1.5058e-10 1.18074e-10 9.16734e-11 7.04703e-11 5.36311e-11 4.04064e-11 3.01361e-11 2.22487e-11 1.62587e-11 1.17602e-11 8.41921e-12 5.96548e-12 4.18334e-12 2.9033e-12 1.99407e-12 1.35537e-12 9.11672e-13 6.06836e-13 3.99714e-13 2.60535e-13 1.68041e-13 1.07249e-13 6.77315e-14 4.23261e-14 2.61722e-14 1.60134e-14 9.69471e-15 5.80755e-15 3.44236e-15 2.01893e-15 1.17163e-15 6.72756e-16 3.82232e-16 2.1488e-16 1.19527e-16 6.57863e-17 3.58267e-17 1.93054e-17 1.02932e-17 5.43023e-18 2.83429e-18 1.46314e-18 7.45989e-19 3.73396e-19 1.78703e-19 7.15011e-20 0 
0 1.34978e-19 3.37129e-19 7.038e-19 1.40471e-18 2.75234e-18 5.32629e-18 1.01946e-17 1.93054e-17 3.61735e-17 6.70673e-17 1.23038e-16 2.23345e-16 4.01164e-16 7.12977e-16 1.25382e-15 2.18175e-15 3.7565e-15 6.39986e-15 1.07887e-14 1.79961e-14 2.97031e-14 4.85111e-14 7.8397e-14 1.25366e-13 1.98375e-13 3.10615e-13 4.81275e-13 7.37912e-13 1.1196e-12 1.68101e-12 2.49771e-12 3.67265e-12 5.34436e-12 7.69661e-12 1.09699e-11 1.54744e-11 2.16048e-11 2.98555e-11 4.08368e-11 5.52904e-11 7.41032e-11 9.8318e-11 1.2914e-10 1.67936e-10 2.16225e-10 2.75662e-10 3.48006e-10 4.3508e-10 5.38714e-10 6.60683e-10 8.0263e-10 9.65984e-10 1.15188e-09 1.36105e-09 1.59381e-09 1.8499e-09 2.12852e-09 2.42827e-09 2.74713e-09 3.08255e-09 3.43144e-09 3.79027e-09 4.1552e-09 4.5222e-09 4.88713e-09 5.24596e-09 5.59485e-09 5.93027e-09 6.24914e-09 6.54888e-09 6.8275e-09 7.0836e-09 7.31635e-09 7.52553e-09 7.71142e-09 7.87477e-09 8.01672e-09 8.13869e-09 8.24232e-09 8.3294e-09 8.40174e-09 8.46118e-09 8.50947e-09 8.54826e-09 8.57908e-09 8.6033e-09 8.62211e-09 8.63657e-09 8.64755e-09 8.6558e-09 8.66193e-09 8.66643e-09 8.66971e-09 8.67206e-09 8.67373e-09 8.67491e-09 8.67572e-09 8.67628e-09 8.67666e-09 8.67692e-09 8.67709e-09 8.6772e-09 8.67728e-09 8.67732e-09 8.67735e-09 8.67737e-09 8.67738e-09 8.67739e-09 8.6774e-09 8.6774e-09 8.6774e-09 8.6774e-09 8.6774e-09 8.6774e-09 8.6774e-09 8.6774e-09 8.6774e-09 8.6774e-09 8.6774e-09 8.6774e-09 8.6774e-09 8.6774e-09 8.6774e-09 8.6774e-09 8.6774e-09 8.6774e-09 8.6774e-09 8.6774e-09 8.6774e-09 8.6774e-09 8.6774e-09 8.6774e-09 8.6774e-09 8.6774e-09 8.6774e-09 8.6774e-09 8.6774e-09 8.6774e-09 8.6774e-09 8.6774e-09 8.6774e-09 8.6774e-09 8.6774e-09 8.6774e-09 8.6774e-09 8.6774e-09 8.67739e-09 8.67738e-09 8.67737e-09 8.67735e-09 8.67732e-09 8.67728e-09 8.6772e-09 8.67709e-09 8.67692e-09 8.67666e-09 8.67628e-09 8.67572e-09 8.67491e-09 8.67373e-09 8.67206e-09 8.66971e-09 8.66643e-09 8.66193e-09 8.6558e-09 8.64755e-09 8.63657e-09 8.62211e-09 8.6033e-09 8.57908e-09 8.54826e-09 8.50947e-09 8.46118e-09 8.40174e-09 8.3294e-09 8.24232e-09 8.13869e-09 8.01672e-09 7.87477e-09 7.71142e-09 7.52553e-09 7.31635e-09 7.0836e-09 6.8275e-09 6.54888e-09 6.24914e-09 5.93027e-09 5.59485e-09 5.24596e-09 4.88713e-09 4.5222e-09 4.1552e-09 3.79027e-09 3.43144e-09 3.08255e-09 2.74713e-09 2.42827e-09 2.12852e-09 1.8499e-09 1.59381e-09 1.36105e-09 1.15188e-09 9.65984e-10 8.0263e-10 6.60683e-10 5.38714e-10 4.3508e-10 3.48006e-10 2.75662e-10 2.16225e-10 1.67936e-10 1.2914e-10 9.8318e-11 7.41032e-11 5.52904e-11 4.08368e-11 2.98555e-11 2.16048e-11 1.54744e-11 1.09699e-11 7.69661e-12 5.34436e-12 3.67265e-12 2.49771e-12 1.68101e-12 1.1196e-12 7.37912e-13 4.81275e-13 3.10615e-13 1.98375e-13 1.25366e-13 7.8397e-14 4.85111e-14 2.97031e-14 1.79961e-14 1.07887e-14 6.39986e-15 3.7565e-15 2.18175e-15 1.25382e-15 7.12977e-16 4.01164e-16 2.23345e-16 1.23038e-16 6.70673e-17 3.61735e-17 1.93054e-17 1.01946e-17 5.32629e-18 2.75234e-18 1.40471e-18 7.038e-19 3.37129e-19 1.34978e-19 0 