<?xml version="1.0"?>
<VTKFile type="ImageData" version="0.1" byte_order="LittleEndian">
  <ImageData WholeExtent="0 255 0 255 0 0" Origin="0 0 0" Spacing="1 1 1">
  <Piece Extent="0 255 0 255 0 0">
    <PointData>
      <DataArray type="Float32" Name="scalar_data" format="ascii" >0 0 0 0 0 0 0 0 0 0 0 0 0 0 0 0 0 0 0 0 0 0 0 0 0 0 0 0 0 0 0 0 0 0 0 0 0 0 0 0 0 0 0 0 0 0 0 0 0 0 0 0 0 0 0 0 0 0 0 0 0 0 0 0 0 0 0 0 0 0 0 0 0 0 0 0 0 0 0 0 0 0 0 0 0 0 0 0 0 0 0 0 0 0 0 0 0 0 0 0 0 0 0 0 0 0 0 0 0 0 0 0 0 0 0 0 0 0 0 0 0 0 0 0 0 0 0 0 0 0 0 0 0 0 0 0 0 0 0 0 0 0 0 0 0 0 0 0 0 0 0 0 0 0 0 0 0 0 0 0 0 0 0 0 0 0 0 0 0 0 0 0 0 0 0 0 0 0 0 0 0 0 0 0 0 0 0 0 0 0 0 0 0 0 0 0 0 0 0 0 0 0 0 0 0 0 0 0 0 0 0 0 0 0 0 0 0 0 0 0 0 0 0 0 0 0 0 0 0 0 0 0 0 0 0 0 0 0 0 0 0 0 0 0 0 0 0 0 0 0 0 0 0 0 0 0 
0 5.30738e-19 1.24583e-18 2.38633e-18 4.32171e-18 7.65502e-18 1.3387e-17 2.31768e-17 3.97566e-17 6.7586e-17 1.13874e-16 1.90164e-16 3.14749e-16 5.16342e-16 8.39556e-16 1.35301e-15 2.1612e-15 3.42162e-15 5.36925e-15 8.35111e-15 1.28743e-14 1.96725e-14 2.97957e-14 4.47309e-14 6.65622e-14 9.81789e-14 1.43544e-13 2.08033e-13 2.9886e-13 4.25596e-13 6.00798e-13 8.40756e-13 1.16635e-12 1.60404e-12 2.18696e-12 2.95607e-12 3.96141e-12 5.26329e-12 6.93349e-12 9.05625e-12 1.1729e-11 1.5063e-11 1.91829e-11 2.42265e-11 3.03431e-11 3.76919e-11 4.64385e-11 5.67514e-11 6.87975e-11 8.27363e-11 9.87145e-11 1.16859e-10 1.3727e-10 1.60016e-10 1.85127e-10 2.12589e-10 2.4234e-10 2.7427e-10 3.08216e-10 3.43968e-10 3.81268e-10 4.19819e-10 4.59289e-10 4.99321e-10 5.39541e-10 5.79573e-10 6.19043e-10 6.57594e-10 6.94894e-10 7.30646e-10 7.64592e-10 7.96522e-10 8.26273e-10 8.53735e-10 8.78846e-10 9.01592e-10 9.22003e-10 9.40148e-10 9.56126e-10 9.70065e-10 9.82111e-10 9.92423e-10 1.00117e-09 1.00852e-09 1.01464e-09 1.01968e-09 1.0238e-09 1.02713e-09 1.02981e-09 1.03193e-09 1.0336e-09 1.0349e-09 1.03591e-09 1.03668e-09 1.03726e-09 1.0377e-09 1.03802e-09 1.03826e-09 1.03844e-09 1.03856e-09 1.03865e-09 1.03872e-09 1.03876e-09 1.0388e-09 1.03882e-09 1.03883e-09 1.03884e-09 1.03885e-09 1.03885e-09 1.03886e-09 1.03886e-09 1.03886e-09 1.03886e-09 1.03886e-09 1.03886e-09 1.03886e-09 1.03886e-09 1.03886e-09 1.03886e-09 1.03886e-09 1.03886e-09 1.03886e-09 1.03886e-09 1.03886e-09 1.03886e-09 1.03886e-09 1.03886e-09 1.03886e-09 1.03886e-09 1.03886e-09 1.03886e-09 1.03886e-09 1.03886e-09 1.03886e-09 1.03886e-09 1.03886e-09 1.03886e-09 1.03886e-09 1.03886e-09 1.03886e-09 1.03886e-09 1.03886e-09 1.03886e-09 1.03886e-09 1.03886e-09 1.03886e-09 1.03886e-09 1.03885e-09 1.03885e-09 1.03884e-09 1.03883e-09 1.03882e-09 1.0388e-09 1.03876e-09 1.03872e-09 1.03865e-09 1.03856e-09 1.03844e-09 1.03826e-09 1.03802e-09 1.0377e-09 1.03726e-09 1.03668e-09 1.03591e-09 1.0349e-09 1.0336e-09 1.03193e-09 1.02981e-09 1.02713e-09 1.0238e-09 1.01968e-09 1.01464e-09 1.00852e-09 1.00117e-09 9.92423e-10 9.82111e-10 9.70065e-10 9.56126e-10 9.40148e-10 9.22003e-10 9.01592e-10 8.78846e-10 8.53735e-10 8.26273e-10 7.96522e-10 7.64592e-10 7.30646e-10 6.94894e-10 6.57594e-10 6.19043e-10 5.79573e-10 5.39541e-10 4.99321e-10 4.59289e-10 4.19819e-10 3.81268e-10 3.43968e-10 3.08216e-10 2.7427e-10 2.4234e-10 2.12589e-10 1.85127e-10 1.60016e-10 1.3727e-10 1.16859e-10 9.87145e-11 8.27363e-11 6.87975e-11 5.67514e-11 4.64385e-11 3.76919e-11 3.03431e-11 2.42265e-11 1.91829e-11 1.5063e-11 1.1729e-11 9.05625e-12 6.93349e-12 5.26329e-12 3.96141e-12 2.95607e-12 2.18696e-12 1.60404e-12 1.16635e-12 8.40756e-13 6.00798e-13 4.25596e-13 2.9886e-13 2.08033e-13 1.43544e-13 9.81789e-14 6.65622e-14 4.47309e-14 2.97957e-14 1.96725e-14 1.28743e-14 8.35111e-15 5.36925e-15 3.42162e-15 2.1612e-15 1.35301e-15 8.39556e-16 5.16342e-16 3.14749e-16 1.90164e-16 1.13874e-16 6.7586e-17 3.97566e-17 2.31768e-17 1.3387e-17 7.65502e-18 4.32171e-18 2.38633e-18 1.24583e-18 5.30738e-19 0 
0 1.24583e-18 2.92383e-18 5.59884e-18 1.01363e-17 1.79481e-17 3.13763e-17 5.43026e-17 9.31168e-17 1.58245e-16 2.66535e-16 4.44954e-16 7.3623e-16 1.2074e-15 1.96259e-15 3.16193e-15 5.04915e-15 7.99154e-15 1.25369e-14 1.94941e-14 3.00446e-14 4.58974e-14 6.94977e-14 1.04308e-13 1.55178e-13 2.28833e-13 3.34491e-13 4.84657e-13 6.96105e-13 9.91087e-13 1.39879e-12 1.95707e-12 2.71445e-12 3.73239e-12 5.08784e-12 6.87591e-12 9.21277e-12 1.22384e-11 1.61195e-11 2.10514e-11 2.72604e-11 3.50041e-11 4.45721e-11 5.62836e-11 7.04853e-11 8.75456e-11 1.07849e-10 1.31785e-10 1.59742e-10 1.92088e-10 2.29164e-10 2.71262e-10 3.18616e-10 3.71384e-10 4.29635e-10 4.93335e-10 5.62343e-10 6.36399e-10 7.1513e-10 7.98046e-10 8.8455e-10 9.73954e-10 1.06549e-09 1.15832e-09 1.25159e-09 1.34443e-09 1.43596e-09 1.52537e-09 1.61187e-09 1.69479e-09 1.77352e-09 1.84757e-09 1.91658e-09 1.98028e-09 2.03853e-09 2.0913e-09 2.13865e-09 2.18075e-09 2.21783e-09 2.25017e-09 2.27813e-09 2.30207e-09 2.32237e-09 2.33943e-09 2.35363e-09 2.36534e-09 2.37491e-09 2.38266e-09 2.38886e-09 2.3938e-09 2.39768e-09 2.4007e-09 2.40304e-09 2.40483e-09 2.40618e-09 2.4072e-09 2.40796e-09 2.40852e-09 2.40893e-09 2.40922e-09 2.40943e-09 2.40958e-09 2.40969e-09 2.40976e-09 2.40981e-09 2.40985e-09 2.40987e-09 2.40989e-09 2.4099e-09 2.4099e-09 2.40991e-09 2.40991e-09 2.40991e-09 2.40991e-09 2.40991e-09 2.40992e-09 2.40992e-09 2.40992e-09 2.40992e-09 2.40992e-09 2.40992e-09 2.40992e-09 2.40992e-09 2.40992e-09 2.40992e-09 2.40992e-09 2.40992e-09 2.40992e-09 2.40992e-09 2.40992e-09 2.40992e-09 2.40992e-09 2.40992e-09 2.40992e-09 2.40992e-09 2.40992e-09 2.40992e-09 2.40992e-09 2.40992e-09 2.40992e-09 2.40992e-09 2.40991e-09 2.40991e-09 2.40991e-09 2.40991e-09 2.40991e-09 2.4099e-09 2.4099e-09 2.40989e-09 2.40987e-09 2.40985e-09 2.40981e-09 2.40976e-09 2.40969e-09 2.40958e-09 2.40943e-09 2.40922e-09 2.40893e-09 2.40852e-09 2.40796e-09 2.4072e-09 2.40618e-09 2.40483e-09 2.40304e-09 2.4007e-09 2.39768e-09 2.3938e-09 2.38886e-09 2.38266e-09 2.37491e-09 2.36534e-09 2.35363e-09 2.33943e-09 2.32237e-09 2.30207e-09 2.27813e-09 2.25017e-09 2.21783e-09 2.18075e-09 2.13865e-09 2.0913e-09 2.03853e-09 1.98028e-09 1.91658e-09 1.84757e-09 1.77352e-09 1.69479e-09 1.61187e-09 1.52537e-09 1.43596e-09 1.34443e-09 1.25159e-09 1.15832e-09 1.06549e-09 9.73954e-10 8.8455e-10 7.98046e-10 7.1513e-10 6.36399e-10 5.62343e-10 4.93335e-10 4.29635e-10 3.71384e-10 3.18616e-10 2.71262e-10 2.29164e-10 1.92088e-10 1.59742e-10 1.31785e-10 1.07849e-10 8.75456e-11 7.04853e-11 5.62836e-11 4.45721e-11 3.50041e-11 2.72604e-11 2.10514e-11 1.61195e-11 1.22384e-11 9.21277e-12 6.87591e-12 5.08784e-12 3.73239e-12 2.71445e-12 1.95707e-12 1.39879e-12 9.91087e-13 6.96105e-13 4.84657e-13 3.34491e-13 2.28833e-13 1.55178e-13 1.04308e-13 6.94977e-14 4.58974e-14 3.00446e-14 1.94941e-14 1.25369e-14 7.99154e-15 5.04915e-15 3.16193e-15 1.96259e-15 1.2074e-15 7.3623e-16 4.44954e-16 2.66535e-16 1.58245e-16 9.31168e-17 5.43026e-17 3.13763e-17 1.79481e-17 1.01363e-17 5.59884e-18 2.92383e-18 1.24583e-18 0 
0 2.38633e-18 5.59884e-18 1.07168e-17 1.93929e-17 3.43217e-17 5.99702e-17 1.03738e-16 1.77801e-16 3.02015e-16 5.08451e-16 8.48416e-16 1.40317e-15 2.30015e-15 3.7372e-15 6.01843e-15 9.60656e-15 1.51986e-14 2.38336e-14 3.70451e-14 5.70729e-14 8.71545e-14 1.31921e-13 1.97927e-13 2.94353e-13 4.3392e-13 6.34062e-13 9.18423e-13 1.3187e-12 1.87695e-12 2.64829e-12 3.70421e-12 5.13629e-12 7.06054e-12 9.62211e-12 1.30004e-11 1.74145e-11 2.31284e-11 3.04559e-11 3.97655e-11 5.14832e-11 6.60944e-11 8.41442e-11 1.06234e-10 1.33015e-10 1.65182e-10 2.03458e-10 2.48576e-10 3.01264e-10 3.62218e-10 4.32074e-10 5.11384e-10 6.00588e-10 6.9998e-10 8.09689e-10 9.29652e-10 1.0596e-09 1.19905e-09 1.34729e-09 1.5034e-09 1.66626e-09 1.83458e-09 2.0069e-09 2.18167e-09 2.35727e-09 2.53204e-09 2.70436e-09 2.87268e-09 3.03554e-09 3.19165e-09 3.33989e-09 3.47934e-09 3.60929e-09 3.72925e-09 3.83896e-09 3.93835e-09 4.02756e-09 4.10687e-09 4.17672e-09 4.23768e-09 4.29037e-09 4.33548e-09 4.37376e-09 4.40593e-09 4.43271e-09 4.4548e-09 4.47285e-09 4.48746e-09 4.49918e-09 4.50849e-09 4.51581e-09 4.52153e-09 4.52594e-09 4.52932e-09 4.53188e-09 4.53381e-09 4.53524e-09 4.53629e-09 4.53706e-09 4.53762e-09 4.53802e-09 4.53831e-09 4.53851e-09 4.53865e-09 4.53874e-09 4.53881e-09 4.53885e-09 4.53888e-09 4.5389e-09 4.53892e-09 4.53893e-09 4.53893e-09 4.53894e-09 4.53894e-09 4.53894e-09 4.53894e-09 4.53894e-09 4.53894e-09 4.53894e-09 4.53894e-09 4.53894e-09 4.53894e-09 4.53894e-09 4.53894e-09 4.53894e-09 4.53894e-09 4.53894e-09 4.53894e-09 4.53894e-09 4.53894e-09 4.53894e-09 4.53894e-09 4.53894e-09 4.53894e-09 4.53894e-09 4.53894e-09 4.53894e-09 4.53894e-09 4.53894e-09 4.53894e-09 4.53894e-09 4.53894e-09 4.53894e-09 4.53894e-09 4.53893e-09 4.53893e-09 4.53892e-09 4.5389e-09 4.53888e-09 4.53885e-09 4.53881e-09 4.53874e-09 4.53865e-09 4.53851e-09 4.53831e-09 4.53802e-09 4.53762e-09 4.53706e-09 4.53629e-09 4.53524e-09 4.53381e-09 4.53188e-09 4.52932e-09 4.52594e-09 4.52153e-09 4.51581e-09 4.50849e-09 4.49918e-09 4.48746e-09 4.47285e-09 4.4548e-09 4.43271e-09 4.40593e-09 4.37376e-09 4.33548e-09 4.29037e-09 4.23768e-09 4.17672e-09 4.10687e-09 4.02756e-09 3.93835e-09 3.83896e-09 3.72925e-09 3.60929e-09 3.47934e-09 3.33989e-09 3.19165e-09 3.03554e-09 2.87268e-09 2.70436e-09 2.53204e-09 2.35727e-09 2.18167e-09 2.0069e-09 1.83458e-09 1.66626e-09 1.5034e-09 1.34729e-09 1.19905e-09 1.0596e-09 9.29652e-10 8.09689e-10 6.9998e-10 6.00588e-10 5.11384e-10 4.32074e-10 3.62218e-10 3.01264e-10 2.48576e-10 2.03458e-10 1.65182e-10 1.33015e-10 1.06234e-10 8.41442e-11 6.60944e-11 5.14832e-11 3.97655e-11 3.04559e-11 2.31284e-11 1.74145e-11 1.30004e-11 9.62211e-12 7.06054e-12 5.13629e-12 3.70421e-12 2.64829e-12 1.87695e-12 1.3187e-12 9.18423e-13 6.34062e-13 4.3392e-13 2.94353e-13 1.97927e-13 1.31921e-13 8.71545e-14 5.70729e-14 3.70451e-14 2.38336e-14 1.51986e-14 9.60656e-15 6.01843e-15 3.7372e-15 2.30015e-15 1.40317e-15 8.48416e-16 5.08451e-16 3.02015e-16 1.77801e-16 1.03738e-16 5.99702e-17 3.43217e-17 1.93929e-17 1.07168e-17 5.59884e-18 2.38633e-18 0 
0 4.32171e-18 1.01363e-17 1.93929e-17 3.5074e-17 6.20388e-17 1.08338e-16 1.873e-16 3.2084e-16 5.44679e-16 9.16487e-16 1.52846e-15 2.52656e-15 4.13954e-15 6.7224e-15 1.08205e-14 1.72633e-14 2.72994e-14 4.27897e-14 6.6479e-14 1.02374e-13 1.56266e-13 2.36431e-13 3.54582e-13 5.27116e-13 7.76743e-13 1.13458e-12 1.6428e-12 2.35793e-12 3.35493e-12 4.73204e-12 6.61659e-12 9.17167e-12 1.26038e-11 1.71712e-11 2.31933e-11 3.10594e-11 4.12389e-11 5.429e-11 7.0867e-11 9.17269e-11 1.17732e-10 1.4985e-10 1.89147e-10 2.36782e-10 2.93986e-10 3.62039e-10 4.42245e-10 5.35892e-10 6.44213e-10 7.68337e-10 9.09243e-10 1.0677e-09 1.24424e-09 1.43909e-09 1.65212e-09 1.88287e-09 2.13047e-09 2.39367e-09 2.67082e-09 2.95995e-09 3.25875e-09 3.56465e-09 3.87489e-09 4.1866e-09 4.49684e-09 4.80274e-09 5.10154e-09 5.39067e-09 5.66782e-09 5.93102e-09 6.17862e-09 6.40936e-09 6.6224e-09 6.81724e-09 6.99378e-09 7.15225e-09 7.29315e-09 7.41728e-09 7.5256e-09 7.61924e-09 7.69945e-09 7.7675e-09 7.82471e-09 7.87234e-09 7.91164e-09 7.94376e-09 7.96976e-09 7.99062e-09 8.0072e-09 8.02025e-09 8.03043e-09 8.0383e-09 8.04432e-09 8.04889e-09 8.05232e-09 8.05487e-09 8.05676e-09 8.05814e-09 8.05913e-09 8.05985e-09 8.06035e-09 8.06071e-09 8.06096e-09 8.06113e-09 8.06125e-09 8.06133e-09 8.06139e-09 8.06142e-09 8.06145e-09 8.06146e-09 8.06147e-09 8.06148e-09 8.06148e-09 8.06148e-09 8.06149e-09 8.06149e-09 8.06149e-09 8.06149e-09 8.06149e-09 8.06149e-09 8.06149e-09 8.06149e-09 8.06149e-09 8.06149e-09 8.06149e-09 8.06149e-09 8.06149e-09 8.06149e-09 8.06149e-09 8.06149e-09 8.06149e-09 8.06149e-09 8.06149e-09 8.06149e-09 8.06149e-09 8.06149e-09 8.06149e-09 8.06149e-09 8.06149e-09 8.06149e-09 8.06148e-09 8.06148e-09 8.06148e-09 8.06147e-09 8.06146e-09 8.06145e-09 8.06142e-09 8.06139e-09 8.06133e-09 8.06125e-09 8.06113e-09 8.06096e-09 8.06071e-09 8.06035e-09 8.05985e-09 8.05913e-09 8.05814e-09 8.05676e-09 8.05487e-09 8.05232e-09 8.04889e-09 8.04432e-09 8.0383e-09 8.03043e-09 8.02025e-09 8.0072e-09 7.99062e-09 7.96976e-09 7.94376e-09 7.91164e-09 7.87234e-09 7.82471e-09 7.7675e-09 7.69945e-09 7.61924e-09 7.5256e-09 7.41728e-09 7.29315e-09 7.15225e-09 6.99378e-09 6.81724e-09 6.6224e-09 6.40936e-09 6.17862e-09 5.93102e-09 5.66782e-09 5.39067e-09 5.10154e-09 4.80274e-09 4.49684e-09 4.1866e-09 3.87489e-09 3.56465e-09 3.25875e-09 2.95995e-09 2.67082e-09 2.39367e-09 2.13047e-09 1.88287e-09 1.65212e-09 1.43909e-09 1.24424e-09 1.0677e-09 9.09243e-10 7.68337e-10 6.44213e-10 5.35892e-10 4.42245e-10 3.62039e-10 2.93986e-10 2.36782e-10 1.89147e-10 1.4985e-10 1.17732e-10 9.17269e-11 7.0867e-11 5.429e-11 4.12389e-11 3.10594e-11 2.31933e-11 1.71712e-11 1.26038e-11 9.17167e-12 6.61659e-12 4.73204e-12 3.35493e-12 2.35793e-12 1.6428e-12 1.13458e-12 7.76743e-13 5.27116e-13 3.54582e-13 2.36431e-13 1.56266e-13 1.02374e-13 6.6479e-14 4.27897e-14 2.72994e-14 1.72633e-14 1.08205e-14 6.7224e-15 4.13954e-15 2.52656e-15 1.52846e-15 9.16487e-16 5.44679e-16 3.2084e-16 1.873e-16 1.08338e-16 6.20388e-17 3.5074e-17 1.93929e-17 1.01363e-17 4.32171e-18 0 
0 7.65502e-18 1.79481e-17 3.43217e-17 6.20388e-17 1.09668e-16 1.91397e-16 3.30698e-16 5.66143e-16 9.60562e-16 1.61533e-15 2.69245e-15 4.44818e-15 7.28402e-15 1.18226e-14 1.902e-14 3.03295e-14 4.7938e-14 7.51026e-14 1.16625e-13 1.79514e-13 2.73888e-13 4.1421e-13 6.20933e-13 9.22677e-13 1.35907e-12 1.98437e-12 2.87212e-12 4.12082e-12 5.86105e-12 8.26387e-12 1.15509e-11 1.6006e-11 2.19883e-11 2.99471e-11 4.04371e-11 5.41354e-11 7.18572e-11 9.45718e-11 1.23415e-10 1.59702e-10 2.04927e-10 2.6077e-10 3.29081e-10 4.11867e-10 5.11261e-10 6.29485e-10 7.68796e-10 9.31425e-10 1.11951e-09 1.33499e-09 1.57958e-09 1.85461e-09 2.16097e-09 2.49906e-09 2.86868e-09 3.269e-09 3.69852e-09 4.15506e-09 4.63579e-09 5.13726e-09 5.65548e-09 6.18601e-09 6.72407e-09 7.26465e-09 7.80271e-09 8.33324e-09 8.85146e-09 9.35293e-09 9.83366e-09 1.02902e-08 1.07197e-08 1.112e-08 1.14897e-08 1.18277e-08 1.21341e-08 1.24091e-08 1.26537e-08 1.28692e-08 1.30573e-08 1.32199e-08 1.33592e-08 1.34775e-08 1.35769e-08 1.36596e-08 1.37279e-08 1.37838e-08 1.3829e-08 1.38653e-08 1.38941e-08 1.39169e-08 1.39346e-08 1.39483e-08 1.39588e-08 1.39667e-08 1.39727e-08 1.39772e-08 1.39805e-08 1.39829e-08 1.39846e-08 1.39858e-08 1.39867e-08 1.39874e-08 1.39878e-08 1.39881e-08 1.39883e-08 1.39884e-08 1.39885e-08 1.39886e-08 1.39886e-08 1.39887e-08 1.39887e-08 1.39887e-08 1.39887e-08 1.39887e-08 1.39887e-08 1.39887e-08 1.39887e-08 1.39887e-08 1.39887e-08 1.39887e-08 1.39887e-08 1.39887e-08 1.39887e-08 1.39887e-08 1.39887e-08 1.39887e-08 1.39887e-08 1.39887e-08 1.39887e-08 1.39887e-08 1.39887e-08 1.39887e-08 1.39887e-08 1.39887e-08 1.39887e-08 1.39887e-08 1.39887e-08 1.39887e-08 1.39887e-08 1.39887e-08 1.39887e-08 1.39887e-08 1.39887e-08 1.39887e-08 1.39887e-08 1.39886e-08 1.39886e-08 1.39885e-08 1.39884e-08 1.39883e-08 1.39881e-08 1.39878e-08 1.39874e-08 1.39867e-08 1.39858e-08 1.39846e-08 1.39829e-08 1.39805e-08 1.39772e-08 1.39727e-08 1.39667e-08 1.39588e-08 1.39483e-08 1.39346e-08 1.39169e-08 1.38941e-08 1.38653e-08 1.3829e-08 1.37838e-08 1.37279e-08 1.36596e-08 1.35769e-08 1.34775e-08 1.33592e-08 1.32199e-08 1.30573e-08 1.28692e-08 1.26537e-08 1.24091e-08 1.21341e-08 1.18277e-08 1.14897e-08 1.112e-08 1.07197e-08 1.02902e-08 9.83366e-09 9.35293e-09 8.85146e-09 8.33324e-09 7.80271e-09 7.26465e-09 6.72407e-09 6.18601e-09 5.65548e-09 5.13726e-09 4.63579e-09 4.15506e-09 3.69852e-09 3.269e-09 2.86868e-09 2.49906e-09 2.16097e-09 1.85461e-09 1.57958e-09 1.33499e-09 1.11951e-09 9.31425e-10 7.68796e-10 6.29485e-10 5.11261e-10 4.11867e-10 3.29081e-10 2.6077e-10 2.04927e-10 1.59702e-10 1.23415e-10 9.45718e-11 7.18572e-11 5.41354e-11 4.04371e-11 2.99471e-11 2.19883e-11 1.6006e-11 1.15509e-11 8.26387e-12 5.86105e-12 4.12082e-12 2.87212e-12 1.98437e-12 1.35907e-12 9.22677e-13 6.20933e-13 4.1421e-13 2.73888e-13 1.79514e-13 1.16625e-13 7.51026e-14 4.7938e-14 3.03295e-14 1.902e-14 1.18226e-14 7.28402e-15 4.44818e-15 2.69245e-15 1.61533e-15 9.60562e-16 5.66143e-16 3.30698e-16 1.91397e-16 1.09668e-16 6.20388e-17 3.43217e-17 1.79481e-17 7.65502e-18 0 
0 1.3387e-17 3.13763e-17 5.99702e-17 1.08338e-16 1.91397e-16 3.3383e-16 5.76444e-16 9.86261e-16 1.67238e-15 2.81075e-15 4.68231e-15 7.73133e-15 1.26533e-14 2.05265e-14 3.30054e-14 5.26037e-14 8.31021e-14 1.30129e-13 2.01977e-13 3.10744e-13 4.73889e-13 7.16356e-13 1.0734e-12 1.59434e-12 2.34742e-12 3.42607e-12 4.95682e-12 7.10913e-12 1.01075e-11 1.4246e-11 1.99055e-11 2.75733e-11 3.78664e-11 5.15555e-11 6.95928e-11 9.31395e-11 1.23594e-10 1.62617e-10 2.12155e-10 2.74461e-10 3.52096e-10 4.47934e-10 5.65144e-10 7.07159e-10 8.7763e-10 1.08036e-09 1.3192e-09 1.59796e-09 1.92031e-09 2.28957e-09 2.70863e-09 3.17978e-09 3.70455e-09 4.28361e-09 4.9166e-09 5.6021e-09 6.33754e-09 7.1192e-09 7.94223e-09 8.80072e-09 9.68786e-09 1.0596e-08 1.15171e-08 1.24425e-08 1.33635e-08 1.42717e-08 1.51589e-08 1.60174e-08 1.68404e-08 1.7622e-08 1.83575e-08 1.9043e-08 1.9676e-08 2.0255e-08 2.07798e-08 2.1251e-08 2.167e-08 2.20393e-08 2.23616e-08 2.26404e-08 2.28792e-08 2.30819e-08 2.32524e-08 2.33944e-08 2.35116e-08 2.36075e-08 2.36851e-08 2.37474e-08 2.3797e-08 2.3836e-08 2.38664e-08 2.389e-08 2.3908e-08 2.39217e-08 2.3932e-08 2.39397e-08 2.39453e-08 2.39495e-08 2.39525e-08 2.39546e-08 2.39562e-08 2.39572e-08 2.3958e-08 2.39585e-08 2.39589e-08 2.39591e-08 2.39593e-08 2.39594e-08 2.39594e-08 2.39595e-08 2.39595e-08 2.39595e-08 2.39596e-08 2.39596e-08 2.39596e-08 2.39596e-08 2.39596e-08 2.39596e-08 2.39596e-08 2.39596e-08 2.39596e-08 2.39596e-08 2.39596e-08 2.39596e-08 2.39596e-08 2.39596e-08 2.39596e-08 2.39596e-08 2.39596e-08 2.39596e-08 2.39596e-08 2.39596e-08 2.39596e-08 2.39596e-08 2.39596e-08 2.39596e-08 2.39596e-08 2.39596e-08 2.39596e-08 2.39596e-08 2.39596e-08 2.39596e-08 2.39595e-08 2.39595e-08 2.39595e-08 2.39594e-08 2.39594e-08 2.39593e-08 2.39591e-08 2.39589e-08 2.39585e-08 2.3958e-08 2.39572e-08 2.39562e-08 2.39546e-08 2.39525e-08 2.39495e-08 2.39453e-08 2.39397e-08 2.3932e-08 2.39217e-08 2.3908e-08 2.389e-08 2.38664e-08 2.3836e-08 2.3797e-08 2.37474e-08 2.36851e-08 2.36075e-08 2.35116e-08 2.33944e-08 2.32524e-08 2.30819e-08 2.28792e-08 2.26404e-08 2.23616e-08 2.20393e-08 2.167e-08 2.1251e-08 2.07798e-08 2.0255e-08 1.9676e-08 1.9043e-08 1.83575e-08 1.7622e-08 1.68404e-08 1.60174e-08 1.51589e-08 1.42717e-08 1.33635e-08 1.24425e-08 1.15171e-08 1.0596e-08 9.68786e-09 8.80072e-09 7.94223e-09 7.1192e-09 6.33754e-09 5.6021e-09 4.9166e-09 4.28361e-09 3.70455e-09 3.17978e-09 2.70863e-09 2.28957e-09 1.92031e-09 1.59796e-09 1.3192e-09 1.08036e-09 8.7763e-10 7.07159e-10 5.65144e-10 4.47934e-10 3.52096e-10 2.74461e-10 2.12155e-10 1.62617e-10 1.23594e-10 9.31395e-11 6.95928e-11 5.15555e-11 3.78664e-11 2.75733e-11 1.99055e-11 1.4246e-11 1.01075e-11 7.10913e-12 4.95682e-12 3.42607e-12 2.34742e-12 1.59434e-12 1.0734e-12 7.16356e-13 4.73889e-13 3.10744e-13 2.01977e-13 1.30129e-13 8.31021e-14 5.26037e-14 3.30054e-14 2.05265e-14 1.26533e-14 7.73133e-15 4.68231e-15 2.81075e-15 1.67238e-15 9.86261e-16 5.76444e-16 3.3383e-16 1.91397e-16 1.08338e-16 5.99702e-17 3.13763e-17 1.3387e-17 0 
0 2.31768e-17 5.43026e-17 1.03738e-16 1.873e-16 3.30698e-16 5.76444e-16 9.94782e-16 1.701e-15 2.88267e-15 4.84207e-15 8.06166e-15 1.33039e-14 2.17617e-14 3.52835e-14 5.67043e-14 9.03287e-14 1.42628e-13 2.2323e-13 3.46317e-13 5.32562e-13 8.11794e-13 1.2266e-12 1.83716e-12 2.7276e-12 4.0143e-12 5.85652e-12 8.46982e-12 1.21429e-11 1.72579e-11 2.43152e-11 3.39628e-11 4.70296e-11 6.45641e-11 8.78765e-11 1.18584e-10 1.58659e-10 2.10475e-10 2.76852e-10 3.61093e-10 4.67017e-10 5.98969e-10 7.61821e-10 9.60944e-10 1.20216e-09 1.49164e-09 1.83583e-09 2.24126e-09 2.71438e-09 3.26137e-09 3.88787e-09 4.59878e-09 5.39794e-09 6.28795e-09 7.26991e-09 8.34323e-09 9.50548e-09 1.07523e-08 1.20774e-08 1.34725e-08 1.49277e-08 1.64314e-08 1.79707e-08 1.95318e-08 2.11002e-08 2.26613e-08 2.42006e-08 2.57043e-08 2.71595e-08 2.85546e-08 2.98797e-08 3.11266e-08 3.22888e-08 3.33621e-08 3.43441e-08 3.52341e-08 3.60332e-08 3.67442e-08 3.73707e-08 3.79177e-08 3.83908e-08 3.87962e-08 3.91404e-08 3.94299e-08 3.96711e-08 3.98702e-08 4.00331e-08 4.0165e-08 4.02709e-08 4.03552e-08 4.04216e-08 4.04734e-08 4.05134e-08 4.05442e-08 4.05675e-08 4.0585e-08 4.05981e-08 4.06077e-08 4.06148e-08 4.06199e-08 4.06236e-08 4.06262e-08 4.0628e-08 4.06293e-08 4.06302e-08 4.06308e-08 4.06312e-08 4.06315e-08 4.06317e-08 4.06318e-08 4.06319e-08 4.06319e-08 4.0632e-08 4.0632e-08 4.0632e-08 4.0632e-08 4.0632e-08 4.0632e-08 4.0632e-08 4.0632e-08 4.0632e-08 4.0632e-08 4.0632e-08 4.0632e-08 4.0632e-08 4.0632e-08 4.0632e-08 4.0632e-08 4.0632e-08 4.0632e-08 4.0632e-08 4.0632e-08 4.0632e-08 4.0632e-08 4.0632e-08 4.0632e-08 4.0632e-08 4.0632e-08 4.0632e-08 4.0632e-08 4.0632e-08 4.0632e-08 4.0632e-08 4.0632e-08 4.06319e-08 4.06319e-08 4.06318e-08 4.06317e-08 4.06315e-08 4.06312e-08 4.06308e-08 4.06302e-08 4.06293e-08 4.0628e-08 4.06262e-08 4.06236e-08 4.06199e-08 4.06148e-08 4.06077e-08 4.05981e-08 4.0585e-08 4.05675e-08 4.05442e-08 4.05134e-08 4.04734e-08 4.04216e-08 4.03552e-08 4.02709e-08 4.0165e-08 4.00331e-08 3.98702e-08 3.96711e-08 3.94299e-08 3.91404e-08 3.87962e-08 3.83908e-08 3.79177e-08 3.73707e-08 3.67442e-08 3.60332e-08 3.52341e-08 3.43441e-08 3.33621e-08 3.22888e-08 3.11266e-08 2.98797e-08 2.85546e-08 2.71595e-08 2.57043e-08 2.42006e-08 2.26613e-08 2.11002e-08 1.95318e-08 1.79707e-08 1.64314e-08 1.49277e-08 1.34725e-08 1.20774e-08 1.07523e-08 9.50548e-09 8.34323e-09 7.26991e-09 6.28795e-09 5.39794e-09 4.59878e-09 3.88787e-09 3.26137e-09 2.71438e-09 2.24126e-09 1.83583e-09 1.49164e-09 1.20216e-09 9.60944e-10 7.61821e-10 5.98969e-10 4.67017e-10 3.61093e-10 2.76852e-10 2.10475e-10 1.58659e-10 1.18584e-10 8.78765e-11 6.45641e-11 4.70296e-11 3.39628e-11 2.43152e-11 1.72579e-11 1.21429e-11 8.46982e-12 5.85652e-12 4.0143e-12 2.7276e-12 1.83716e-12 1.2266e-12 8.11794e-13 5.32562e-13 3.46317e-13 2.2323e-13 1.42628e-13 9.03287e-14 5.67043e-14 3.52835e-14 2.17617e-14 1.33039e-14 8.06166e-15 4.84207e-15 2.88267e-15 1.701e-15 9.94782e-16 5.76444e-16 3.30698e-16 1.873e-16 1.03738e-16 5.43026e-17 2.31768e-17 0 
0 3.97566e-17 9.31168e-17 1.77801e-16 3.2084e-16 5.66143e-16 9.86261e-16 1.701e-15 2.90687e-15 4.9234e-15 8.26525e-15 1.37533e-14 2.26842e-14 3.70858e-14 6.00978e-14 9.65336e-14 1.53699e-13 2.42568e-13 3.79465e-13 5.88421e-13 9.04449e-13 1.37805e-12 2.08128e-12 3.11592e-12 4.62421e-12 6.80281e-12 9.92073e-12 1.4342e-11 2.05538e-11 2.92009e-11 4.11275e-11 5.74257e-11 7.94926e-11 1.09095e-10 1.48439e-10 2.00248e-10 2.67841e-10 3.55213e-10 4.67105e-10 6.09074e-10 7.87539e-10 1.0098e-09 1.28405e-09 1.6193e-09 2.02533e-09 2.51252e-09 3.09166e-09 3.77372e-09 4.56952e-09 5.48943e-09 6.5429e-09 7.73811e-09 9.08153e-09 1.05775e-08 1.22278e-08 1.40315e-08 1.59845e-08 1.80794e-08 2.03057e-08 2.26495e-08 2.50941e-08 2.76201e-08 3.02059e-08 3.28282e-08 3.54628e-08 3.80851e-08 4.06709e-08 4.31969e-08 4.56415e-08 4.79853e-08 5.02116e-08 5.23065e-08 5.42595e-08 5.60632e-08 5.77135e-08 5.92095e-08 6.05529e-08 6.17481e-08 6.28016e-08 6.37215e-08 6.45173e-08 6.51993e-08 6.57785e-08 6.62657e-08 6.66717e-08 6.7007e-08 6.72812e-08 6.75035e-08 6.76819e-08 6.78239e-08 6.79358e-08 6.80232e-08 6.80908e-08 6.81426e-08 6.81819e-08 6.82115e-08 6.82336e-08 6.82499e-08 6.82618e-08 6.82705e-08 6.82767e-08 6.82811e-08 6.82842e-08 6.82864e-08 6.82879e-08 6.82889e-08 6.82896e-08 6.82901e-08 6.82904e-08 6.82906e-08 6.82908e-08 6.82908e-08 6.82909e-08 6.82909e-08 6.8291e-08 6.8291e-08 6.8291e-08 6.8291e-08 6.8291e-08 6.8291e-08 6.8291e-08 6.8291e-08 6.8291e-08 6.8291e-08 6.8291e-08 6.8291e-08 6.8291e-08 6.8291e-08 6.8291e-08 6.8291e-08 6.8291e-08 6.8291e-08 6.8291e-08 6.8291e-08 6.8291e-08 6.8291e-08 6.8291e-08 6.8291e-08 6.8291e-08 6.8291e-08 6.8291e-08 6.8291e-08 6.82909e-08 6.82909e-08 6.82908e-08 6.82908e-08 6.82906e-08 6.82904e-08 6.82901e-08 6.82896e-08 6.82889e-08 6.82879e-08 6.82864e-08 6.82842e-08 6.82811e-08 6.82767e-08 6.82705e-08 6.82618e-08 6.82499e-08 6.82336e-08 6.82115e-08 6.81819e-08 6.81426e-08 6.80908e-08 6.80232e-08 6.79358e-08 6.78239e-08 6.76819e-08 6.75035e-08 6.72812e-08 6.7007e-08 6.66717e-08 6.62657e-08 6.57785e-08 6.51993e-08 6.45173e-08 6.37215e-08 6.28016e-08 6.17481e-08 6.05529e-08 5.92095e-08 5.77135e-08 5.60632e-08 5.42595e-08 5.23065e-08 5.02116e-08 4.79853e-08 4.56415e-08 4.31969e-08 4.06709e-08 3.80851e-08 3.54628e-08 3.28282e-08 3.02059e-08 2.76201e-08 2.50941e-08 2.26495e-08 2.03057e-08 1.80794e-08 1.59845e-08 1.40315e-08 1.22278e-08 1.05775e-08 9.08153e-09 7.73811e-09 6.5429e-09 5.48943e-09 4.56952e-09 3.77372e-09 3.09166e-09 2.51252e-09 2.02533e-09 1.6193e-09 1.28405e-09 1.0098e-09 7.87539e-10 6.09074e-10 4.67105e-10 3.55213e-10 2.67841e-10 2.00248e-10 1.48439e-10 1.09095e-10 7.94926e-11 5.74257e-11 4.11275e-11 2.92009e-11 2.05538e-11 1.4342e-11 9.92073e-12 6.80281e-12 4.62421e-12 3.11592e-12 2.08128e-12 1.37805e-12 9.04449e-13 5.88421e-13 3.79465e-13 2.42568e-13 1.53699e-13 9.65336e-14 6.00978e-14 3.70858e-14 2.26842e-14 1.37533e-14 8.26525e-15 4.9234e-15 2.90687e-15 1.701e-15 9.86261e-16 5.66143e-16 3.2084e-16 1.77801e-16 9.31168e-17 3.97566e-17 0 
0 6.7586e-17 1.58245e-16 3.02015e-16 5.44679e-16 9.60562e-16 1.67238e-15 2.88267e-15 4.9234e-15 8.3341e-15 1.39832e-14 2.32553e-14 3.83358e-14 6.26411e-14 1.01458e-13 1.62887e-13 2.59216e-13 4.08898e-13 6.39363e-13 9.90973e-13 1.52251e-12 2.31871e-12 3.50045e-12 5.23837e-12 7.77084e-12 1.14273e-11 1.66582e-11 2.40728e-11 3.44863e-11 4.89773e-11 6.89568e-11 9.62503e-11 1.33192e-10 1.82732e-10 2.48555e-10 3.35206e-10 4.48223e-10 5.94268e-10 7.8125e-10 1.01843e-09 1.31651e-09 1.68765e-09 2.14549e-09 2.70505e-09 3.3826e-09 4.19541e-09 5.16146e-09 6.29897e-09 7.62597e-09 9.15966e-09 1.09158e-08 1.29079e-08 1.51467e-08 1.76395e-08 2.03892e-08 2.33942e-08 2.66475e-08 3.01371e-08 3.38452e-08 3.77488e-08 4.18201e-08 4.60268e-08 5.0333e-08 5.46999e-08 5.90874e-08 6.34543e-08 6.77605e-08 7.19672e-08 7.60385e-08 7.99422e-08 8.36502e-08 8.71398e-08 9.03931e-08 9.33981e-08 9.61478e-08 9.86406e-08 1.00879e-07 1.02872e-07 1.04628e-07 1.06161e-07 1.07488e-07 1.08626e-07 1.09592e-07 1.10405e-07 1.11082e-07 1.11642e-07 1.121e-07 1.12471e-07 1.12769e-07 1.13006e-07 1.13193e-07 1.13339e-07 1.13452e-07 1.13539e-07 1.13605e-07 1.13654e-07 1.13691e-07 1.13718e-07 1.13738e-07 1.13753e-07 1.13763e-07 1.13771e-07 1.13776e-07 1.1378e-07 1.13782e-07 1.13784e-07 1.13785e-07 1.13786e-07 1.13786e-07 1.13787e-07 1.13787e-07 1.13787e-07 1.13787e-07 1.13787e-07 1.13787e-07 1.13787e-07 1.13787e-07 1.13787e-07 1.13787e-07 1.13787e-07 1.13787e-07 1.13787e-07 1.13787e-07 1.13787e-07 1.13787e-07 1.13787e-07 1.13787e-07 1.13787e-07 1.13787e-07 1.13787e-07 1.13787e-07 1.13787e-07 1.13787e-07 1.13787e-07 1.13787e-07 1.13787e-07 1.13787e-07 1.13787e-07 1.13787e-07 1.13787e-07 1.13787e-07 1.13787e-07 1.13787e-07 1.13787e-07 1.13787e-07 1.13787e-07 1.13787e-07 1.13786e-07 1.13786e-07 1.13785e-07 1.13784e-07 1.13782e-07 1.1378e-07 1.13776e-07 1.13771e-07 1.13763e-07 1.13753e-07 1.13738e-07 1.13718e-07 1.13691e-07 1.13654e-07 1.13605e-07 1.13539e-07 1.13452e-07 1.13339e-07 1.13193e-07 1.13006e-07 1.12769e-07 1.12471e-07 1.121e-07 1.11642e-07 1.11082e-07 1.10405e-07 1.09592e-07 1.08626e-07 1.07488e-07 1.06161e-07 1.04628e-07 1.02872e-07 1.00879e-07 9.86406e-08 9.61478e-08 9.33981e-08 9.03931e-08 8.71398e-08 8.36502e-08 7.99422e-08 7.60385e-08 7.19672e-08 6.77605e-08 6.34543e-08 5.90874e-08 5.46999e-08 5.0333e-08 4.60268e-08 4.18201e-08 3.77488e-08 3.38452e-08 3.01371e-08 2.66475e-08 2.33942e-08 2.03892e-08 1.76395e-08 1.51467e-08 1.29079e-08 1.09158e-08 9.15966e-09 7.62597e-09 6.29897e-09 5.16146e-09 4.19541e-09 3.3826e-09 2.70505e-09 2.14549e-09 1.68765e-09 1.31651e-09 1.01843e-09 7.8125e-10 5.94268e-10 4.48223e-10 3.35206e-10 2.48555e-10 1.82732e-10 1.33192e-10 9.62503e-11 6.89568e-11 4.89773e-11 3.44863e-11 2.40728e-11 1.66582e-11 1.14273e-11 7.77084e-12 5.23837e-12 3.50045e-12 2.31871e-12 1.52251e-12 9.90973e-13 6.39363e-13 4.08898e-13 2.59216e-13 1.62887e-13 1.01458e-13 6.26411e-14 3.83358e-14 2.32553e-14 1.39832e-14 8.3341e-15 4.9234e-15 2.88267e-15 1.67238e-15 9.60562e-16 5.44679e-16 3.02015e-16 1.58245e-16 6.7586e-17 0 