<?xml version="1.0"?>
<VTKFile type="ImageData" version="0.1" byte_order="LittleEndian">
  <ImageData WholeExtent="0 255 0 255 0 0" Origin="0 0 0" Spacing="1 1 1">
  <Piece Extent="0 255 0 255 0 0">
    <PointData>
      <DataArray type="Float32" Name="scalar_data" format="ascii" >0 0 0 0 0 0 0 0 0 0 0 0 0 0 0 0 0 0 0 0 0 0 0 0 0 0 0 0 0 0 0 0 0 0 0 0 0 0 0 0 0 0 0 0 0 0 0 0 0 0 0 0 0 0 0 0 0 0 0 0 0 0 0 0 0 0 0 0 0 0 0 0 0 0 0 0 0 0 0 0 0 0 0 0 0 0 0 0 0 0 0 0 0 0 0 0 0 0 0 0 0 0 0 0 0 0 0 0 0 0 0 0 0 0 0 0 0 0 0 0 0 0 0 0 0 0 0 0 0 0 0 0 0 0 0 0 0 0 0 0 0 0 0 0 0 0 0 0 0 0 0 0 0 0 0 0 0 0 0 0 0 0 0 0 0 0 0 0 0 0 0 0 0 0 0 0 0 0 0 0 0 0 0 0 0 0 0 0 0 0 0 0 0 0 0 0 0 0 0 0 0 0 0 0 0 0 0 0 0 0 0 0 0 0 0 0 0 0 0 0 0 0 0 0 0 0 0 0 0 0 0 0 0 0 0 0 0 0 0 0 0 0 0 0 0 0 0 0 0 0 0 0 0 0 0 0 
0 3.57532e-20 8.60141e-20 1.70548e-19 3.21302e-19 5.93108e-19 1.08127e-18 1.95089e-18 3.48556e-18 6.1677e-18 1.08094e-17 1.87634e-17 3.22593e-17 5.49332e-17 9.26509e-17 1.54775e-16 2.56089e-16 4.19681e-16 6.81221e-16 1.09522e-15 1.74405e-15 2.75083e-15 4.29755e-15 6.65017e-15 1.0193e-14 1.54752e-14 2.32723e-14 3.46668e-14 5.11527e-14 7.47668e-14 1.08254e-13 1.55267e-13 2.20609e-13 3.10518e-13 4.32992e-13 5.98154e-13 8.1865e-13 1.11007e-12 1.49135e-12 1.9852e-12 2.61843e-12 3.42221e-12 4.4322e-12 5.68856e-12 7.23563e-12 9.1215e-12 1.13972e-11 1.41156e-11 1.73301e-11 2.10929e-11 2.54531e-11 3.04544e-11 3.61333e-11 4.25163e-11 4.96184e-11 5.74405e-11 6.59688e-11 7.51728e-11 8.50057e-11 9.54042e-11 1.0629e-10 1.17569e-10 1.2914e-10 1.40888e-10 1.52696e-10 1.64444e-10 1.76014e-10 1.87294e-10 1.9818e-10 2.08578e-10 2.18411e-10 2.27615e-10 2.36143e-10 2.43965e-10 2.51068e-10 2.57451e-10 2.63129e-10 2.68131e-10 2.72491e-10 2.76254e-10 2.79468e-10 2.82187e-10 2.84462e-10 2.86348e-10 2.87895e-10 2.89152e-10 2.90162e-10 2.90965e-10 2.91599e-10 2.92092e-10 2.92474e-10 2.92765e-10 2.92986e-10 2.93151e-10 2.93273e-10 2.93363e-10 2.93429e-10 2.93476e-10 2.93509e-10 2.93533e-10 2.93549e-10 2.93561e-10 2.93568e-10 2.93574e-10 2.93577e-10 2.9358e-10 2.93581e-10 2.93582e-10 2.93583e-10 2.93583e-10 2.93583e-10 2.93584e-10 2.93584e-10 2.93584e-10 2.93584e-10 2.93584e-10 2.93584e-10 2.93584e-10 2.93584e-10 2.93584e-10 2.93584e-10 2.93584e-10 2.93584e-10 2.93584e-10 2.93584e-10 2.93584e-10 2.93584e-10 2.93584e-10 2.93584e-10 2.93584e-10 2.93584e-10 2.93584e-10 2.93584e-10 2.93584e-10 2.93584e-10 2.93584e-10 2.93584e-10 2.93584e-10 2.93584e-10 2.93584e-10 2.93584e-10 2.93584e-10 2.93584e-10 2.93584e-10 2.93584e-10 2.93583e-10 2.93583e-10 2.93583e-10 2.93582e-10 2.93581e-10 2.9358e-10 2.93577e-10 2.93574e-10 2.93568e-10 2.93561e-10 2.93549e-10 2.93533e-10 2.93509e-10 2.93476e-10 2.93429e-10 2.93363e-10 2.93273e-10 2.93151e-10 2.92986e-10 2.92765e-10 2.92474e-10 2.92092e-10 2.91599e-10 2.90965e-10 2.90162e-10 2.89152e-10 2.87895e-10 2.86348e-10 2.84462e-10 2.82187e-10 2.79468e-10 2.76254e-10 2.72491e-10 2.68131e-10 2.63129e-10 2.57451e-10 2.51068e-10 2.43965e-10 2.36143e-10 2.27615e-10 2.18411e-10 2.08578e-10 1.9818e-10 1.87294e-10 1.76014e-10 1.64444e-10 1.52696e-10 1.40888e-10 1.2914e-10 1.17569e-10 1.0629e-10 9.54042e-11 8.50057e-11 7.51728e-11 6.59688e-11 5.74405e-11 4.96184e-11 4.25163e-11 3.61333e-11 3.04544e-11 2.54531e-11 2.10929e-11 1.73301e-11 1.41156e-11 1.13972e-11 9.1215e-12 7.23563e-12 5.68856e-12 4.4322e-12 3.42221e-12 2.61843e-12 1.9852e-12 1.49135e-12 1.11007e-12 8.1865e-13 5.98154e-13 4.32992e-13 3.10518e-13 2.20609e-13 1.55267e-13 1.08254e-13 7.47668e-14 5.11527e-14 3.46668e-14 2.32723e-14 1.54752e-14 1.0193e-14 6.65017e-15 4.29755e-15 2.75083e-15 1.74405e-15 1.09522e-15 6.81221e-16 4.19681e-16 2.56089e-16 1.54775e-16 9.26509e-17 5.49332e-17 3.22593e-17 1.87634e-17 1.08094e-17 6.1677e-18 3.48556e-18 1.95089e-18 1.08127e-18 5.93108e-19 3.21302e-19 1.70548e-19 8.60141e-20 3.57532e-20 0 
0 8.60141e-20 2.06872e-19 4.10022e-19 7.72112e-19 1.42463e-18 2.59598e-18 4.68165e-18 8.36072e-18 1.47877e-17 2.59054e-17 4.49486e-17 7.72466e-17 1.31486e-16 2.21678e-16 3.70172e-16 6.12246e-16 1.00298e-15 1.62743e-15 2.61552e-15 4.16354e-15 6.56477e-15 1.02525e-14 1.58599e-14 2.43015e-14 3.68835e-14 5.54502e-14 8.25753e-14 1.21809e-13 1.77992e-13 2.57642e-13 3.69435e-13 5.24774e-13 7.38463e-13 1.02948e-12 1.42184e-12 1.94554e-12 2.63753e-12 3.54273e-12 4.71494e-12 6.21768e-12 8.12481e-12 1.05208e-11 1.35008e-11 1.71697e-11 2.16414e-11 2.70366e-11 3.34806e-11 4.10996e-11 5.00171e-11 6.03491e-11 7.21991e-11 8.56533e-11 1.00774e-10 1.17597e-10 1.36125e-10 1.56323e-10 1.78121e-10 2.01407e-10 2.26031e-10 2.51808e-10 2.78517e-10 3.05914e-10 3.33732e-10 3.61691e-10 3.89509e-10 4.16906e-10 4.43615e-10 4.69392e-10 4.94016e-10 5.17302e-10 5.391e-10 5.59298e-10 5.77826e-10 5.94649e-10 6.0977e-10 6.23224e-10 6.35074e-10 6.45406e-10 6.54323e-10 6.61942e-10 6.68386e-10 6.73782e-10 6.78253e-10 6.81922e-10 6.84902e-10 6.87298e-10 6.89205e-10 6.90708e-10 6.9188e-10 6.92785e-10 6.93477e-10 6.94001e-10 6.94394e-10 6.94685e-10 6.94898e-10 6.95054e-10 6.95165e-10 6.95245e-10 6.95301e-10 6.9534e-10 6.95368e-10 6.95386e-10 6.95399e-10 6.95407e-10 6.95413e-10 6.95417e-10 6.95419e-10 6.9542e-10 6.95421e-10 6.95422e-10 6.95422e-10 6.95423e-10 6.95423e-10 6.95423e-10 6.95423e-10 6.95423e-10 6.95423e-10 6.95423e-10 6.95423e-10 6.95423e-10 6.95423e-10 6.95423e-10 6.95423e-10 6.95423e-10 6.95423e-10 6.95423e-10 6.95423e-10 6.95423e-10 6.95423e-10 6.95423e-10 6.95423e-10 6.95423e-10 6.95423e-10 6.95423e-10 6.95423e-10 6.95423e-10 6.95423e-10 6.95423e-10 6.95423e-10 6.95423e-10 6.95423e-10 6.95423e-10 6.95423e-10 6.95422e-10 6.95422e-10 6.95421e-10 6.9542e-10 6.95419e-10 6.95417e-10 6.95413e-10 6.95407e-10 6.95399e-10 6.95386e-10 6.95368e-10 6.9534e-10 6.95301e-10 6.95245e-10 6.95165e-10 6.95054e-10 6.94898e-10 6.94685e-10 6.94394e-10 6.94001e-10 6.93477e-10 6.92785e-10 6.9188e-10 6.90708e-10 6.89205e-10 6.87298e-10 6.84902e-10 6.81922e-10 6.78253e-10 6.73782e-10 6.68386e-10 6.61942e-10 6.54323e-10 6.45406e-10 6.35074e-10 6.23224e-10 6.0977e-10 5.94649e-10 5.77826e-10 5.59298e-10 5.391e-10 5.17302e-10 4.94016e-10 4.69392e-10 4.43615e-10 4.16906e-10 3.89509e-10 3.61691e-10 3.33732e-10 3.05914e-10 2.78517e-10 2.51808e-10 2.26031e-10 2.01407e-10 1.78121e-10 1.56323e-10 1.36125e-10 1.17597e-10 1.00774e-10 8.56533e-11 7.21991e-11 6.03491e-11 5.00171e-11 4.10996e-11 3.34806e-11 2.70366e-11 2.16414e-11 1.71697e-11 1.35008e-11 1.05208e-11 8.12481e-12 6.21768e-12 4.71494e-12 3.54273e-12 2.63753e-12 1.94554e-12 1.42184e-12 1.02948e-12 7.38463e-13 5.24774e-13 3.69435e-13 2.57642e-13 1.77992e-13 1.21809e-13 8.25753e-14 5.54502e-14 3.68835e-14 2.43015e-14 1.58599e-14 1.02525e-14 6.56477e-15 4.16354e-15 2.61552e-15 1.62743e-15 1.00298e-15 6.12246e-16 3.70172e-16 2.21678e-16 1.31486e-16 7.72466e-17 4.49486e-17 2.59054e-17 1.47877e-17 8.36072e-18 4.68165e-18 2.59598e-18 1.42463e-18 7.72112e-19 4.10022e-19 2.06872e-19 8.60141e-20 0 
0 1.70548e-19 4.10022e-19 8.12223e-19 1.52855e-18 2.81851e-18 5.13263e-18 9.2504e-18 1.65094e-17 2.91825e-17 5.10914e-17 8.85962e-17 1.52169e-16 2.58868e-16 4.36191e-16 7.27981e-16 1.2034e-15 1.97036e-15 3.19546e-15 5.133e-15 8.16701e-15 1.2871e-14 2.00919e-14 3.10664e-14 4.75806e-14 7.21838e-14 1.08474e-13 1.61471e-13 2.38095e-13 3.47777e-13 5.03214e-13 7.21296e-13 1.02422e-12 1.44078e-12 2.0079e-12 2.77227e-12 3.79217e-12 5.13941e-12 6.90123e-12 9.18211e-12 1.21054e-11 1.58143e-11 2.04729e-11 2.62654e-11 3.33955e-11 4.20839e-11 5.25646e-11 6.50802e-11 7.98753e-11 9.71888e-11 1.17245e-10 1.40246e-10 1.66356e-10 1.95697e-10 2.28337e-10 2.6428e-10 3.03461e-10 3.45742e-10 3.90905e-10 4.38661e-10 4.8865e-10 5.40446e-10 5.93574e-10 6.47516e-10 7.01733e-10 7.55676e-10 8.08803e-10 8.606e-10 9.10588e-10 9.58344e-10 1.00351e-09 1.04579e-09 1.08497e-09 1.12091e-09 1.15355e-09 1.18289e-09 1.209e-09 1.232e-09 1.25206e-09 1.26937e-09 1.28417e-09 1.29668e-09 1.30717e-09 1.31585e-09 1.32298e-09 1.32878e-09 1.33344e-09 1.33714e-09 1.34007e-09 1.34235e-09 1.34411e-09 1.34546e-09 1.34648e-09 1.34724e-09 1.34781e-09 1.34823e-09 1.34853e-09 1.34875e-09 1.3489e-09 1.34901e-09 1.34909e-09 1.34914e-09 1.34918e-09 1.3492e-09 1.34922e-09 1.34923e-09 1.34924e-09 1.34924e-09 1.34924e-09 1.34925e-09 1.34925e-09 1.34925e-09 1.34925e-09 1.34925e-09 1.34925e-09 1.34925e-09 1.34925e-09 1.34925e-09 1.34925e-09 1.34925e-09 1.34925e-09 1.34925e-09 1.34925e-09 1.34925e-09 1.34925e-09 1.34925e-09 1.34925e-09 1.34925e-09 1.34925e-09 1.34925e-09 1.34925e-09 1.34925e-09 1.34925e-09 1.34925e-09 1.34925e-09 1.34925e-09 1.34925e-09 1.34925e-09 1.34925e-09 1.34925e-09 1.34925e-09 1.34925e-09 1.34925e-09 1.34925e-09 1.34925e-09 1.34925e-09 1.34925e-09 1.34924e-09 1.34924e-09 1.34924e-09 1.34923e-09 1.34922e-09 1.3492e-09 1.34918e-09 1.34914e-09 1.34909e-09 1.34901e-09 1.3489e-09 1.34875e-09 1.34853e-09 1.34823e-09 1.34781e-09 1.34724e-09 1.34648e-09 1.34546e-09 1.34411e-09 1.34235e-09 1.34007e-09 1.33714e-09 1.33344e-09 1.32878e-09 1.32298e-09 1.31585e-09 1.30717e-09 1.29668e-09 1.28417e-09 1.26937e-09 1.25206e-09 1.232e-09 1.209e-09 1.18289e-09 1.15355e-09 1.12091e-09 1.08497e-09 1.04579e-09 1.00351e-09 9.58344e-10 9.10588e-10 8.606e-10 8.08803e-10 7.55676e-10 7.01733e-10 6.47516e-10 5.93574e-10 5.40446e-10 4.8865e-10 4.38661e-10 3.90905e-10 3.45742e-10 3.03461e-10 2.6428e-10 2.28337e-10 1.95697e-10 1.66356e-10 1.40246e-10 1.17245e-10 9.71888e-11 7.98753e-11 6.50802e-11 5.25646e-11 4.20839e-11 3.33955e-11 2.62654e-11 2.04729e-11 1.58143e-11 1.21054e-11 9.18211e-12 6.90123e-12 5.13941e-12 3.79217e-12 2.77227e-12 2.0079e-12 1.44078e-12 1.02422e-12 7.21296e-13 5.03214e-13 3.47777e-13 2.38095e-13 1.61471e-13 1.08474e-13 7.21838e-14 4.75806e-14 3.10664e-14 2.00919e-14 1.2871e-14 8.16701e-15 5.133e-15 3.19546e-15 1.97036e-15 1.2034e-15 7.27981e-16 4.36191e-16 2.58868e-16 1.52169e-16 8.85962e-17 5.10914e-17 2.91825e-17 1.65094e-17 9.2504e-18 5.13263e-18 2.81851e-18 1.52855e-18 8.12223e-19 4.10022e-19 1.70548e-19 0 
0 3.21302e-19 7.72112e-19 1.52855e-18 2.87461e-18 5.29667e-18 9.63839e-18 1.73584e-17 3.0958e-17 5.46837e-17 9.56721e-17 1.6579e-16 2.84566e-16 4.83787e-16 8.14659e-16 1.35878e-15 2.24478e-15 3.67325e-15 5.95365e-15 9.55814e-15 1.51993e-14 2.39405e-14 3.73517e-14 5.77239e-14 8.83637e-14 1.33989e-13 2.01254e-13 2.9944e-13 4.41333e-13 6.44353e-13 9.3194e-13 1.33526e-12 1.89526e-12 2.66504e-12 3.71262e-12 5.12404e-12 7.00663e-12 9.4926e-12 1.27425e-11 1.69485e-11 2.23373e-11 2.91726e-11 3.77554e-11 4.84246e-11 6.15542e-11 7.75493e-11 9.68395e-11 1.1987e-10 1.47089e-10 1.78936e-10 2.15821e-10 2.58113e-10 3.06115e-10 3.6005e-10 4.20041e-10 4.86095e-10 5.58092e-10 6.35777e-10 7.18752e-10 8.06485e-10 8.98313e-10 9.93458e-10 1.09105e-09 1.19013e-09 1.28971e-09 1.3888e-09 1.48638e-09 1.58153e-09 1.67336e-09 1.76109e-09 1.84407e-09 1.92175e-09 1.99375e-09 2.0598e-09 2.11979e-09 2.17373e-09 2.22173e-09 2.26402e-09 2.30091e-09 2.33275e-09 2.35997e-09 2.383e-09 2.40229e-09 2.41829e-09 2.43142e-09 2.44209e-09 2.45067e-09 2.45751e-09 2.46289e-09 2.4671e-09 2.47035e-09 2.47284e-09 2.47472e-09 2.47613e-09 2.47718e-09 2.47795e-09 2.47851e-09 2.47891e-09 2.4792e-09 2.4794e-09 2.47954e-09 2.47964e-09 2.47971e-09 2.47975e-09 2.47979e-09 2.47981e-09 2.47982e-09 2.47983e-09 2.47983e-09 2.47984e-09 2.47984e-09 2.47984e-09 2.47984e-09 2.47984e-09 2.47984e-09 2.47984e-09 2.47984e-09 2.47984e-09 2.47984e-09 2.47984e-09 2.47984e-09 2.47984e-09 2.47984e-09 2.47984e-09 2.47984e-09 2.47984e-09 2.47984e-09 2.47984e-09 2.47984e-09 2.47984e-09 2.47984e-09 2.47984e-09 2.47984e-09 2.47984e-09 2.47984e-09 2.47984e-09 2.47984e-09 2.47984e-09 2.47984e-09 2.47984e-09 2.47984e-09 2.47984e-09 2.47984e-09 2.47984e-09 2.47984e-09 2.47984e-09 2.47984e-09 2.47983e-09 2.47983e-09 2.47982e-09 2.47981e-09 2.47979e-09 2.47975e-09 2.47971e-09 2.47964e-09 2.47954e-09 2.4794e-09 2.4792e-09 2.47891e-09 2.47851e-09 2.47795e-09 2.47718e-09 2.47613e-09 2.47472e-09 2.47284e-09 2.47035e-09 2.4671e-09 2.46289e-09 2.45751e-09 2.45067e-09 2.44209e-09 2.43142e-09 2.41829e-09 2.40229e-09 2.383e-09 2.35997e-09 2.33275e-09 2.30091e-09 2.26402e-09 2.22173e-09 2.17373e-09 2.11979e-09 2.0598e-09 1.99375e-09 1.92175e-09 1.84407e-09 1.76109e-09 1.67336e-09 1.58153e-09 1.48638e-09 1.3888e-09 1.28971e-09 1.19013e-09 1.09105e-09 9.93458e-10 8.98313e-10 8.06485e-10 7.18752e-10 6.35777e-10 5.58092e-10 4.86095e-10 4.20041e-10 3.6005e-10 3.06115e-10 2.58113e-10 2.15821e-10 1.78936e-10 1.47089e-10 1.1987e-10 9.68395e-11 7.75493e-11 6.15542e-11 4.84246e-11 3.77554e-11 2.91726e-11 2.23373e-11 1.69485e-11 1.27425e-11 9.4926e-12 7.00663e-12 5.12404e-12 3.71262e-12 2.66504e-12 1.89526e-12 1.33526e-12 9.3194e-13 6.44353e-13 4.41333e-13 2.9944e-13 2.01254e-13 1.33989e-13 8.83637e-14 5.77239e-14 3.73517e-14 2.39405e-14 1.51993e-14 9.55814e-15 5.95365e-15 3.67325e-15 2.24478e-15 1.35878e-15 8.14659e-16 4.83787e-16 2.84566e-16 1.6579e-16 9.56721e-17 5.46837e-17 3.0958e-17 1.73584e-17 9.63839e-18 5.29667e-18 2.87461e-18 1.52855e-18 7.72112e-19 3.21302e-19 0 
0 5.93108e-19 1.42463e-18 2.81851e-18 5.29667e-18 9.75207e-18 1.77324e-17 3.19115e-17 5.68705e-17 1.00382e-16 1.75498e-16 3.03908e-16 5.21273e-16 8.85612e-16 1.49031e-15 2.48409e-15 4.10125e-15 6.70693e-15 1.08641e-14 1.7431e-14 2.77025e-14 4.36097e-14 6.80015e-14 1.05033e-13 1.607e-13 2.43549e-13 3.65632e-13 5.43744e-13 8.01022e-13 1.16896e-12 1.68993e-12 2.42023e-12 3.43379e-12 4.82646e-12 6.72098e-12 9.27249e-12 1.26745e-11 1.71652e-11 2.30339e-11 3.06266e-11 4.03514e-11 5.26827e-11 6.81621e-11 8.73989e-11 1.11065e-10 1.3989e-10 1.74644e-10 2.16127e-10 2.65144e-10 3.22483e-10 3.88881e-10 4.64998e-10 5.51379e-10 6.48421e-10 7.56345e-10 8.75161e-10 1.00465e-09 1.14436e-09 1.29357e-09 1.45132e-09 1.61643e-09 1.78749e-09 1.96294e-09 2.14108e-09 2.32011e-09 2.49825e-09 2.67369e-09 2.84476e-09 3.00987e-09 3.16762e-09 3.31683e-09 3.45653e-09 3.58603e-09 3.70484e-09 3.81277e-09 3.90981e-09 3.99619e-09 4.07231e-09 4.1387e-09 4.19604e-09 4.24506e-09 4.28654e-09 4.3213e-09 4.35012e-09 4.37379e-09 4.39303e-09 4.40851e-09 4.42084e-09 4.43056e-09 4.43815e-09 4.44402e-09 4.44851e-09 4.45192e-09 4.45447e-09 4.45636e-09 4.45775e-09 4.45877e-09 4.4595e-09 4.46002e-09 4.46039e-09 4.46064e-09 4.46082e-09 4.46094e-09 4.46103e-09 4.46108e-09 4.46112e-09 4.46114e-09 4.46116e-09 4.46117e-09 4.46118e-09 4.46118e-09 4.46118e-09 4.46119e-09 4.46119e-09 4.46119e-09 4.46119e-09 4.46119e-09 4.46119e-09 4.46119e-09 4.46119e-09 4.46119e-09 4.46119e-09 4.46119e-09 4.46119e-09 4.46119e-09 4.46119e-09 4.46119e-09 4.46119e-09 4.46119e-09 4.46119e-09 4.46119e-09 4.46119e-09 4.46119e-09 4.46119e-09 4.46119e-09 4.46119e-09 4.46119e-09 4.46119e-09 4.46119e-09 4.46119e-09 4.46119e-09 4.46119e-09 4.46119e-09 4.46119e-09 4.46118e-09 4.46118e-09 4.46118e-09 4.46117e-09 4.46116e-09 4.46114e-09 4.46112e-09 4.46108e-09 4.46103e-09 4.46094e-09 4.46082e-09 4.46064e-09 4.46039e-09 4.46002e-09 4.4595e-09 4.45877e-09 4.45775e-09 4.45636e-09 4.45447e-09 4.45192e-09 4.44851e-09 4.44402e-09 4.43815e-09 4.43056e-09 4.42084e-09 4.40851e-09 4.39303e-09 4.37379e-09 4.35012e-09 4.3213e-09 4.28654e-09 4.24506e-09 4.19604e-09 4.1387e-09 4.07231e-09 3.99619e-09 3.90981e-09 3.81277e-09 3.70484e-09 3.58603e-09 3.45653e-09 3.31683e-09 3.16762e-09 3.00987e-09 2.84476e-09 2.67369e-09 2.49825e-09 2.32011e-09 2.14108e-09 1.96294e-09 1.78749e-09 1.61643e-09 1.45132e-09 1.29357e-09 1.14436e-09 1.00465e-09 8.75161e-10 7.56345e-10 6.48421e-10 5.51379e-10 4.64998e-10 3.88881e-10 3.22483e-10 2.65144e-10 2.16127e-10 1.74644e-10 1.3989e-10 1.11065e-10 8.73989e-11 6.81621e-11 5.26827e-11 4.03514e-11 3.06266e-11 2.30339e-11 1.71652e-11 1.26745e-11 9.27249e-12 6.72098e-12 4.82646e-12 3.43379e-12 2.42023e-12 1.68993e-12 1.16896e-12 8.01022e-13 5.43744e-13 3.65632e-13 2.43549e-13 1.607e-13 1.05033e-13 6.80015e-14 4.36097e-14 2.77025e-14 1.7431e-14 1.08641e-14 6.70693e-15 4.10125e-15 2.48409e-15 1.49031e-15 8.85612e-16 5.21273e-16 3.03908e-16 1.75498e-16 1.00382e-16 5.68705e-17 3.19115e-17 1.77324e-17 9.75207e-18 5.29667e-18 2.81851e-18 1.42463e-18 5.93108e-19 0 
0 1.08127e-18 2.59598e-18 5.13263e-18 9.63839e-18 1.77324e-17 3.22187e-17 5.79373e-17 1.03175e-16 1.81981e-16 3.17929e-16 5.50164e-16 9.43008e-16 1.60103e-15 2.69243e-15 4.48489e-15 7.39984e-15 1.20937e-14 1.95776e-14 3.13929e-14 4.98624e-14 7.84492e-14 1.22259e-13 1.88735e-13 2.88608e-13 4.37173e-13 6.55981e-13 9.75053e-13 1.43572e-12 2.09422e-12 3.02616e-12 4.33201e-12 6.14356e-12 8.63168e-12 1.2015e-11 1.65699e-11 2.26407e-11 3.06515e-11 4.11166e-11 5.46514e-11 7.19815e-11 9.39493e-11 1.21518e-10 1.55768e-10 1.97893e-10 2.49186e-10 3.11016e-10 3.848e-10 4.71967e-10 5.7391e-10 6.91938e-10 8.27217e-10 9.80711e-10 1.15313e-09 1.34484e-09 1.55589e-09 1.78587e-09 2.03397e-09 2.29891e-09 2.57902e-09 2.87216e-09 3.17586e-09 3.48733e-09 3.80357e-09 4.12141e-09 4.43765e-09 4.74912e-09 5.05282e-09 5.34596e-09 5.62606e-09 5.89101e-09 6.13911e-09 6.36909e-09 6.58013e-09 6.77185e-09 6.94427e-09 7.09776e-09 7.23304e-09 7.35107e-09 7.45301e-09 7.54018e-09 7.61396e-09 7.67579e-09 7.72709e-09 7.76921e-09 7.80346e-09 7.83103e-09 7.853e-09 7.87033e-09 7.88386e-09 7.89433e-09 7.90234e-09 7.90841e-09 7.91296e-09 7.91635e-09 7.91884e-09 7.92065e-09 7.92195e-09 7.92289e-09 7.92354e-09 7.924e-09 7.92432e-09 7.92454e-09 7.92469e-09 7.92479e-09 7.92486e-09 7.9249e-09 7.92493e-09 7.92495e-09 7.92496e-09 7.92497e-09 7.92497e-09 7.92497e-09 7.92498e-09 7.92498e-09 7.92498e-09 7.92498e-09 7.92498e-09 7.92498e-09 7.92498e-09 7.92498e-09 7.92498e-09 7.92498e-09 7.92498e-09 7.92498e-09 7.92498e-09 7.92498e-09 7.92498e-09 7.92498e-09 7.92498e-09 7.92498e-09 7.92498e-09 7.92498e-09 7.92498e-09 7.92498e-09 7.92498e-09 7.92498e-09 7.92498e-09 7.92498e-09 7.92498e-09 7.92498e-09 7.92498e-09 7.92498e-09 7.92497e-09 7.92497e-09 7.92497e-09 7.92496e-09 7.92495e-09 7.92493e-09 7.9249e-09 7.92486e-09 7.92479e-09 7.92469e-09 7.92454e-09 7.92432e-09 7.924e-09 7.92354e-09 7.92289e-09 7.92195e-09 7.92065e-09 7.91884e-09 7.91635e-09 7.91296e-09 7.90841e-09 7.90234e-09 7.89433e-09 7.88386e-09 7.87033e-09 7.853e-09 7.83103e-09 7.80346e-09 7.76921e-09 7.72709e-09 7.67579e-09 7.61396e-09 7.54018e-09 7.45301e-09 7.35107e-09 7.23304e-09 7.09776e-09 6.94427e-09 6.77185e-09 6.58013e-09 6.36909e-09 6.13911e-09 5.89101e-09 5.62606e-09 5.34596e-09 5.05282e-09 4.74912e-09 4.43765e-09 4.12141e-09 3.80357e-09 3.48733e-09 3.17586e-09 2.87216e-09 2.57902e-09 2.29891e-09 2.03397e-09 1.78587e-09 1.55589e-09 1.34484e-09 1.15313e-09 9.80711e-10 8.27217e-10 6.91938e-10 5.7391e-10 4.71967e-10 3.848e-10 3.11016e-10 2.49186e-10 1.97893e-10 1.55768e-10 1.21518e-10 9.39493e-11 7.19815e-11 5.46514e-11 4.11166e-11 3.06515e-11 2.26407e-11 1.65699e-11 1.2015e-11 8.63168e-12 6.14356e-12 4.33201e-12 3.02616e-12 2.09422e-12 1.43572e-12 9.75053e-13 6.55981e-13 4.37173e-13 2.88608e-13 1.88735e-13 1.22259e-13 7.84492e-14 4.98624e-14 3.13929e-14 1.95776e-14 1.20937e-14 7.39984e-15 4.48489e-15 2.69243e-15 1.60103e-15 9.43008e-16 5.50164e-16 3.17929e-16 1.81981e-16 1.03175e-16 5.79373e-17 3.22187e-17 1.77324e-17 9.63839e-18 5.13263e-18 2.59598e-18 1.08127e-18 0 
0 1.95089e-18 4.68165e-18 9.2504e-18 1.73584e-17 3.19115e-17 5.79373e-17 1.04108e-16 1.85259e-16 3.26525e-16 5.70047e-16 9.85758e-16 1.68848e-15 2.86475e-15 4.81444e-15 8.01443e-15 1.32151e-14 2.15842e-14 3.492e-14 5.59613e-14 8.88336e-14 1.39684e-13 2.17569e-13 3.35687e-13 5.13053e-13 7.76753e-13 1.16494e-12 1.73072e-12 2.54719e-12 3.71375e-12 5.36399e-12 7.67528e-12 1.08803e-11 1.52805e-11 2.12615e-11 2.93103e-11 4.00341e-11 5.41795e-11 7.26523e-11 9.65357e-11 1.27106e-10 1.65846e-10 2.14448e-10 2.74813e-10 3.49038e-10 4.39393e-10 5.48283e-10 6.78195e-10 8.31637e-10 1.01105e-09 1.21874e-09 1.45674e-09 1.72675e-09 2.02998e-09 2.36713e-09 2.73821e-09 3.14254e-09 3.57868e-09 4.04441e-09 4.53674e-09 5.05195e-09 5.5857e-09 6.1331e-09 6.68885e-09 7.24741e-09 7.80317e-09 8.35056e-09 8.88431e-09 9.39953e-09 9.89185e-09 1.03576e-08 1.07937e-08 1.11981e-08 1.15691e-08 1.19063e-08 1.22095e-08 1.24795e-08 1.27175e-08 1.29252e-08 1.31046e-08 1.32581e-08 1.3388e-08 1.34969e-08 1.35872e-08 1.36615e-08 1.37218e-08 1.37704e-08 1.38092e-08 1.38397e-08 1.38636e-08 1.38821e-08 1.38962e-08 1.3907e-08 1.3915e-08 1.3921e-08 1.39254e-08 1.39286e-08 1.39309e-08 1.39326e-08 1.39337e-08 1.39345e-08 1.39351e-08 1.39355e-08 1.39358e-08 1.39359e-08 1.3936e-08 1.39361e-08 1.39362e-08 1.39362e-08 1.39362e-08 1.39362e-08 1.39363e-08 1.39363e-08 1.39363e-08 1.39363e-08 1.39363e-08 1.39363e-08 1.39363e-08 1.39363e-08 1.39363e-08 1.39363e-08 1.39363e-08 1.39363e-08 1.39363e-08 1.39363e-08 1.39363e-08 1.39363e-08 1.39363e-08 1.39363e-08 1.39363e-08 1.39363e-08 1.39363e-08 1.39363e-08 1.39363e-08 1.39363e-08 1.39363e-08 1.39363e-08 1.39363e-08 1.39363e-08 1.39363e-08 1.39363e-08 1.39363e-08 1.39363e-08 1.39363e-08 1.39363e-08 1.39362e-08 1.39362e-08 1.39362e-08 1.39362e-08 1.39361e-08 1.3936e-08 1.39359e-08 1.39358e-08 1.39355e-08 1.39351e-08 1.39345e-08 1.39337e-08 1.39326e-08 1.39309e-08 1.39286e-08 1.39254e-08 1.3921e-08 1.3915e-08 1.3907e-08 1.38962e-08 1.38821e-08 1.38636e-08 1.38397e-08 1.38092e-08 1.37704e-08 1.37218e-08 1.36615e-08 1.35872e-08 1.34969e-08 1.3388e-08 1.32581e-08 1.31046e-08 1.29252e-08 1.27175e-08 1.24795e-08 1.22095e-08 1.19063e-08 1.15691e-08 1.11981e-08 1.07937e-08 1.03576e-08 9.89185e-09 9.39953e-09 8.88431e-09 8.35056e-09 7.80317e-09 7.24741e-09 6.68885e-09 6.1331e-09 5.5857e-09 5.05195e-09 4.53674e-09 4.04441e-09 3.57868e-09 3.14254e-09 2.73821e-09 2.36713e-09 2.02998e-09 1.72675e-09 1.45674e-09 1.21874e-09 1.01105e-09 8.31637e-10 6.78195e-10 5.48283e-10 4.39393e-10 3.49038e-10 2.74813e-10 2.14448e-10 1.65846e-10 1.27106e-10 9.65357e-11 7.26523e-11 5.41795e-11 4.00341e-11 2.93103e-11 2.12615e-11 1.52805e-11 1.08803e-11 7.67528e-12 5.36399e-12 3.71375e-12 2.54719e-12 1.73072e-12 1.16494e-12 7.76753e-13 5.13053e-13 3.35687e-13 2.17569e-13 1.39684e-13 8.88336e-14 5.59613e-14 3.492e-14 2.15842e-14 1.32151e-14 8.01443e-15 4.81444e-15 2.86475e-15 1.68848e-15 9.85758e-16 5.70047e-16 3.26525e-16 1.85259e-16 1.04108e-16 5.79373e-17 3.19115e-17 1.73584e-17 9.2504e-18 4.68165e-18 1.95089e-18 0 
0 3.48556e-18 8.36072e-18 1.65094e-17 3.0958e-17 5.68705e-17 1.03175e-16 1.85259e-16 3.29428e-16 5.80211e-16 1.01222e-15 1.74919e-15 2.99412e-15 5.0766e-15 8.52609e-15 1.41841e-14 2.33736e-14 3.81529e-14 6.16889e-14 9.88022e-14 1.5675e-13 2.4634e-13 3.83485e-13 5.91363e-13 9.03348e-13 1.36696e-12 2.04909e-12 3.04282e-12 4.47617e-12 6.52318e-12 9.41764e-12 1.34698e-11 1.90865e-11 2.67946e-11 3.72677e-11 5.13564e-11 7.01203e-11 9.48625e-11 1.27163e-10 1.6891e-10 2.2233e-10 2.90004e-10 3.7488e-10 4.8027e-10 6.09825e-10 7.67493e-10 9.57458e-10 1.18405e-09 1.45162e-09 1.76442e-09 2.12645e-09 2.54124e-09 3.01173e-09 3.54006e-09 4.12738e-09 4.77374e-09 5.47794e-09 6.23747e-09 7.04845e-09 7.90569e-09 8.80273e-09 9.732e-09 1.0685e-08 1.16525e-08 1.26249e-08 1.35925e-08 1.45455e-08 1.54747e-08 1.63718e-08 1.7229e-08 1.804e-08 1.87995e-08 1.95037e-08 2.01501e-08 2.07374e-08 2.12657e-08 2.17362e-08 2.2151e-08 2.2513e-08 2.28258e-08 2.30934e-08 2.332e-08 2.351e-08 2.36676e-08 2.37972e-08 2.39026e-08 2.39875e-08 2.40551e-08 2.41085e-08 2.41503e-08 2.41826e-08 2.42073e-08 2.42261e-08 2.42402e-08 2.42507e-08 2.42584e-08 2.4264e-08 2.4268e-08 2.42709e-08 2.4273e-08 2.42744e-08 2.42754e-08 2.42761e-08 2.42766e-08 2.42769e-08 2.42771e-08 2.42772e-08 2.42773e-08 2.42774e-08 2.42774e-08 2.42774e-08 2.42774e-08 2.42774e-08 2.42775e-08 2.42775e-08 2.42775e-08 2.42775e-08 2.42775e-08 2.42775e-08 2.42775e-08 2.42775e-08 2.42775e-08 2.42775e-08 2.42775e-08 2.42775e-08 2.42775e-08 2.42775e-08 2.42775e-08 2.42775e-08 2.42775e-08 2.42775e-08 2.42775e-08 2.42775e-08 2.42775e-08 2.42775e-08 2.42775e-08 2.42775e-08 2.42775e-08 2.42775e-08 2.42775e-08 2.42775e-08 2.42775e-08 2.42775e-08 2.42774e-08 2.42774e-08 2.42774e-08 2.42774e-08 2.42774e-08 2.42773e-08 2.42772e-08 2.42771e-08 2.42769e-08 2.42766e-08 2.42761e-08 2.42754e-08 2.42744e-08 2.4273e-08 2.42709e-08 2.4268e-08 2.4264e-08 2.42584e-08 2.42507e-08 2.42402e-08 2.42261e-08 2.42073e-08 2.41826e-08 2.41503e-08 2.41085e-08 2.40551e-08 2.39875e-08 2.39026e-08 2.37972e-08 2.36676e-08 2.351e-08 2.332e-08 2.30934e-08 2.28258e-08 2.2513e-08 2.2151e-08 2.17362e-08 2.12657e-08 2.07374e-08 2.01501e-08 1.95037e-08 1.87995e-08 1.804e-08 1.7229e-08 1.63718e-08 1.54747e-08 1.45455e-08 1.35925e-08 1.26249e-08 1.16525e-08 1.0685e-08 9.732e-09 8.80273e-09 7.90569e-09 7.04845e-09 6.23747e-09 5.47794e-09 4.77374e-09 4.12738e-09 3.54006e-09 3.01173e-09 2.54124e-09 2.12645e-09 1.76442e-09 1.45162e-09 1.18405e-09 9.57458e-10 7.67493e-10 6.09825e-10 4.8027e-10 3.7488e-10 2.90004e-10 2.2233e-10 1.6891e-10 1.27163e-10 9.48625e-11 7.01203e-11 5.13564e-11 3.72677e-11 2.67946e-11 1.90865e-11 1.34698e-11 9.41764e-12 6.52318e-12 4.47617e-12 3.04282e-12 2.04909e-12 1.36696e-12 9.03348e-13 5.91363e-13 3.83485e-13 2.4634e-13 1.5675e-13 9.88022e-14 6.16889e-14 3.81529e-14 2.33736e-14 1.41841e-14 8.52609e-15 5.0766e-15 2.99412e-15 1.74919e-15 1.01222e-15 5.80211e-16 3.29428e-16 1.85259e-16 1.03175e-16 5.68705e-17 3.0958e-17 1.65094e-17 8.36072e-18 3.48556e-18 0 
0 6.1677e-18 1.47877e-17 2.91825e-17 5.46837e-17 1.00382e-16 1.81981e-16 3.26525e-16 5.80211e-16 1.02119e-15 1.78032e-15 3.07444e-15 5.25907e-15 8.91108e-15 1.49565e-14 2.48662e-14 4.09514e-14 6.68051e-14 1.07953e-13 1.728e-13 2.73994e-13 4.30357e-13 6.69591e-13 1.03202e-12 1.57567e-12 2.38315e-12 3.57063e-12 5.29973e-12 7.79263e-12 1.13512e-11 1.63808e-11 2.34192e-11 3.3171e-11 4.65485e-11 6.47177e-11 8.91502e-11 1.21679e-10 1.64556e-10 2.20513e-10 2.92811e-10 3.85296e-10 5.02423e-10 6.49283e-10 8.31587e-10 1.05563e-09 1.32823e-09 1.65658e-09 2.04816e-09 2.51046e-09 3.05081e-09 3.67607e-09 4.39234e-09 5.20466e-09 6.1167e-09 7.13045e-09 8.24597e-09 9.46119e-09 1.07718e-08 1.2171e-08 1.36499e-08 1.51974e-08 1.68005e-08 1.84444e-08 2.01134e-08 2.17908e-08 2.34597e-08 2.51036e-08 2.67067e-08 2.82542e-08 2.97331e-08 3.11324e-08 3.24429e-08 3.36582e-08 3.47737e-08 3.57874e-08 3.66995e-08 3.75118e-08 3.82281e-08 3.88533e-08 3.93937e-08 3.9856e-08 4.02475e-08 4.05759e-08 4.08485e-08 4.10725e-08 4.12548e-08 4.14017e-08 4.15188e-08 4.16113e-08 4.16836e-08 4.17396e-08 4.17824e-08 4.1815e-08 4.18394e-08 4.18576e-08 4.1871e-08 4.18807e-08 4.18878e-08 4.18928e-08 4.18963e-08 4.18988e-08 4.19006e-08 4.19018e-08 4.19026e-08 4.19031e-08 4.19035e-08 4.19037e-08 4.19039e-08 4.1904e-08 4.1904e-08 4.19041e-08 4.19041e-08 4.19041e-08 4.19041e-08 4.19041e-08 4.19041e-08 4.19041e-08 4.19041e-08 4.19041e-08 4.19041e-08 4.19041e-08 4.19041e-08 4.19041e-08 4.19041e-08 4.19041e-08 4.19041e-08 4.19041e-08 4.19041e-08 4.19041e-08 4.19041e-08 4.19041e-08 4.19041e-08 4.19041e-08 4.19041e-08 4.19041e-08 4.19041e-08 4.19041e-08 4.19041e-08 4.19041e-08 4.19041e-08 4.19041e-08 4.19041e-08 4.19041e-08 4.19041e-08 4.19041e-08 4.19041e-08 4.1904e-08 4.1904e-08 4.19039e-08 4.19037e-08 4.19035e-08 4.19031e-08 4.19026e-08 4.19018e-08 4.19006e-08 4.18988e-08 4.18963e-08 4.18928e-08 4.18878e-08 4.18807e-08 4.1871e-08 4.18576e-08 4.18394e-08 4.1815e-08 4.17824e-08 4.17396e-08 4.16836e-08 4.16113e-08 4.15188e-08 4.14017e-08 4.12548e-08 4.10725e-08 4.08485e-08 4.05759e-08 4.02475e-08 3.9856e-08 3.93937e-08 3.88533e-08 3.82281e-08 3.75118e-08 3.66995e-08 3.57874e-08 3.47737e-08 3.36582e-08 3.24429e-08 3.11324e-08 2.97331e-08 2.82542e-08 2.67067e-08 2.51036e-08 2.34597e-08 2.17908e-08 2.01134e-08 1.84444e-08 1.68005e-08 1.51974e-08 1.36499e-08 1.2171e-08 1.07718e-08 9.46119e-09 8.24597e-09 7.13045e-09 6.1167e-09 5.20466e-09 4.39234e-09 3.67607e-09 3.05081e-09 2.51046e-09 2.04816e-09 1.65658e-09 1.32823e-09 1.05563e-09 8.31587e-10 6.49283e-10 5.02423e-10 3.85296e-10 2.92811e-10 2.20513e-10 1.64556e-10 1.21679e-10 8.91502e-11 6.47177e-11 4.65485e-11 3.3171e-11 2.34192e-11 1.63808e-11 1.13512e-11 7.79263e-12 5.29973e-12 3.57063e-12 2.38315e-12 1.57567e-12 1.03202e-12 6.69591e-13 4.30357e-13 2.73994e-13 1.728e-13 1.07953e-13 6.68051e-14 4.09514e-14 2.48662e-14 1.49565e-14 8.91108e-15 5.25907e-15 3.07444e-15 1.78032e-15 1.02119e-15 5.80211e-16 3.26525e-16 1.81981e-16 1.00382e-16 5.46837e-17 2.91825e-17 1.47877e-17 6.1677e-18 0 