<?xml version="1.0"?>
<VTKFile type="ImageData" version="0.1" byte_order="LittleEndian">
  <ImageData WholeExtent="0 255 0 255 0 0" Origin="0 0 0" Spacing="1 1 1">
  <Piece Extent="0 255 0 255 0 0">
    <PointData>
      <DataArray type="Float32" Name="scalar_data" format="ascii" >0 0 0 0 0 0 0 0 0 0 0 0 0 0 0 0 0 0 0 0 0 0 0 0 0 0 0 0 0 0 0 0 0 0 0 0 0 0 0 0 0 0 0 0 0 0 0 0 0 0 0 0 0 0 0 0 0 0 0 0 0 0 0 0 0 0 0 0 0 0 0 0 0 0 0 0 0 0 0 0 0 0 0 0 0 0 0 0 0 0 0 0 0 0 0 0 0 0 0 0 0 0 0 0 0 0 0 0 0 0 0 0 0 0 0 0 0 0 0 0 0 0 0 0 0 0 0 0 0 0 0 0 0 0 0 0 0 0 0 0 0 0 0 0 0 0 0 0 0 0 0 0 0 0 0 0 0 0 0 0 0 0 0 0 0 0 0 0 0 0 0 0 0 0 0 0 0 0 0 0 0 0 0 0 0 0 0 0 0 0 0 0 0 0 0 0 0 0 0 0 0 0 0 0 0 0 0 0 0 0 0 0 0 0 0 0 0 0 0 0 0 0 0 0 0 0 0 0 0 0 0 0 0 0 0 0 0 0 0 0 0 0 0 0 0 0 0 0 0 0 0 0 0 0 0 0 
0 2.16557e-10 4.46617e-10 7.04299e-10 1.00496e-09 1.36588e-09 1.80692e-09 2.35136e-09 3.02666e-09 3.86549e-09 4.90667e-09 6.19639e-09 7.78946e-09 9.75069e-09 1.21565e-08 1.50964e-08 1.86752e-08 2.30144e-08 2.82546e-08 3.45577e-08 4.21085e-08 5.11179e-08 6.1824e-08 7.44951e-08 8.94313e-08 1.06966e-07 1.27469e-07 1.51344e-07 1.79035e-07 2.11021e-07 2.47818e-07 2.8998e-07 3.38093e-07 3.92773e-07 4.54668e-07 5.24443e-07 6.02785e-07 6.90388e-07 7.87951e-07 8.96165e-07 1.01571e-06 1.14723e-06 1.29134e-06 1.44862e-06 1.61956e-06 1.80459e-06 2.00408e-06 2.21827e-06 2.44732e-06 2.69126e-06 2.95001e-06 3.22336e-06 3.51096e-06 3.81232e-06 4.12682e-06 4.45371e-06 4.79208e-06 5.14094e-06 5.49913e-06 5.86542e-06 6.23847e-06 6.61687e-06 6.99914e-06 7.38374e-06 7.76913e-06 8.15373e-06 8.536e-06 8.9144e-06 9.28745e-06 9.65374e-06 1.00119e-05 1.03608e-05 1.06992e-05 1.10261e-05 1.13406e-05 1.16419e-05 1.19295e-05 1.22029e-05 1.24616e-05 1.27056e-05 1.29346e-05 1.31488e-05 1.33483e-05 1.35333e-05 1.37043e-05 1.38615e-05 1.40056e-05 1.41372e-05 1.42567e-05 1.43649e-05 1.44625e-05 1.45501e-05 1.46284e-05 1.46982e-05 1.47601e-05 1.48148e-05 1.48629e-05 1.49051e-05 1.49419e-05 1.49738e-05 1.50015e-05 1.50254e-05 1.50459e-05 1.50634e-05 1.50784e-05 1.5091e-05 1.51018e-05 1.51108e-05 1.51183e-05 1.51246e-05 1.51299e-05 1.51342e-05 1.51378e-05 1.51407e-05 1.51431e-05 1.51451e-05 1.51467e-05 1.51479e-05 1.5149e-05 1.51498e-05 1.51504e-05 1.51509e-05 1.51513e-05 1.51516e-05 1.51519e-05 1.5152e-05 1.51521e-05 1.51522e-05 1.51522e-05 1.51521e-05 1.5152e-05 1.51519e-05 1.51516e-05 1.51513e-05 1.51509e-05 1.51504e-05 1.51498e-05 1.5149e-05 1.51479e-05 1.51467e-05 1.51451e-05 1.51431e-05 1.51407e-05 1.51378e-05 1.51342e-05 1.51299e-05 1.51246e-05 1.51183e-05 1.51108e-05 1.51018e-05 1.5091e-05 1.50784e-05 1.50634e-05 1.50459e-05 1.50254e-05 1.50015e-05 1.49738e-05 1.49419e-05 1.49051e-05 1.48629e-05 1.48148e-05 1.47601e-05 1.46982e-05 1.46284e-05 1.45501e-05 1.44625e-05 1.43649e-05 1.42567e-05 1.41372e-05 1.40056e-05 1.38615e-05 1.37043e-05 1.35333e-05 1.33483e-05 1.31488e-05 1.29346e-05 1.27056e-05 1.24616e-05 1.22029e-05 1.19295e-05 1.16419e-05 1.13406e-05 1.10261e-05 1.06992e-05 1.03608e-05 1.00119e-05 9.65374e-06 9.28745e-06 8.9144e-06 8.536e-06 8.15373e-06 7.76913e-06 7.38374e-06 6.99914e-06 6.61687e-06 6.23847e-06 5.86542e-06 5.49913e-06 5.14094e-06 4.79208e-06 4.45371e-06 4.12682e-06 3.81232e-06 3.51096e-06 3.22336e-06 2.95001e-06 2.69126e-06 2.44732e-06 2.21827e-06 2.00408e-06 1.80459e-06 1.61956e-06 1.44862e-06 1.29134e-06 1.14723e-06 1.01571e-06 8.96165e-07 7.87951e-07 6.90388e-07 6.02785e-07 5.24443e-07 4.54668e-07 3.92773e-07 3.38093e-07 2.8998e-07 2.47818e-07 2.11021e-07 1.79035e-07 1.51344e-07 1.27469e-07 1.06966e-07 8.94313e-08 7.44951e-08 6.1824e-08 5.11179e-08 4.21085e-08 3.45577e-08 2.82546e-08 2.30144e-08 1.86752e-08 1.50964e-08 1.21565e-08 9.75069e-09 7.78946e-09 6.19639e-09 4.90667e-09 3.86549e-09 3.02666e-09 2.35136e-09 1.80692e-09 1.36588e-09 1.00496e-09 7.04299e-10 4.46617e-10 2.16557e-10 0 
0 4.46617e-10 9.2108e-10 1.4525e-09 2.07256e-09 2.81685e-09 3.72637e-09 4.84908e-09 6.24165e-09 7.9714e-09 1.01184e-08 1.27778e-08 1.60628e-08 2.01068e-08 2.50674e-08 3.11294e-08 3.85085e-08 4.74554e-08 5.826e-08 7.12558e-08 8.68244e-08 1.054e-07 1.27473e-07 1.53598e-07 1.84392e-07 2.20544e-07 2.62813e-07 3.12036e-07 3.69125e-07 4.35068e-07 5.1093e-07 5.9785e-07 6.97038e-07 8.09766e-07 9.37363e-07 1.08121e-06 1.24271e-06 1.4233e-06 1.62443e-06 1.84751e-06 2.09394e-06 2.36506e-06 2.66215e-06 2.98635e-06 3.33873e-06 3.72016e-06 4.13138e-06 4.57291e-06 5.04507e-06 5.54792e-06 6.08131e-06 6.64477e-06 7.23761e-06 7.85882e-06 8.50711e-06 9.18093e-06 9.87843e-06 1.05975e-05 1.13359e-05 1.20909e-05 1.28599e-05 1.36399e-05 1.44279e-05 1.52207e-05 1.60151e-05 1.68078e-05 1.75958e-05 1.83758e-05 1.91448e-05 1.98998e-05 2.06382e-05 2.13573e-05 2.20548e-05 2.27286e-05 2.33769e-05 2.39981e-05 2.45909e-05 2.51544e-05 2.56878e-05 2.61906e-05 2.66628e-05 2.71043e-05 2.75155e-05 2.7897e-05 2.82494e-05 2.85736e-05 2.88706e-05 2.91418e-05 2.93882e-05 2.96113e-05 2.98124e-05 2.9993e-05 3.01545e-05 3.02983e-05 3.04259e-05 3.05387e-05 3.06379e-05 3.07248e-05 3.08006e-05 3.08666e-05 3.09237e-05 3.09729e-05 3.10152e-05 3.10513e-05 3.10821e-05 3.11082e-05 3.11303e-05 3.11489e-05 3.11645e-05 3.11774e-05 3.11882e-05 3.11972e-05 3.12046e-05 3.12106e-05 3.12156e-05 3.12196e-05 3.12229e-05 3.12255e-05 3.12276e-05 3.12293e-05 3.12307e-05 3.12317e-05 3.12325e-05 3.12332e-05 3.12336e-05 3.1234e-05 3.12342e-05 3.12343e-05 3.12343e-05 3.12342e-05 3.1234e-05 3.12336e-05 3.12332e-05 3.12325e-05 3.12317e-05 3.12307e-05 3.12293e-05 3.12276e-05 3.12255e-05 3.12229e-05 3.12196e-05 3.12156e-05 3.12106e-05 3.12046e-05 3.11972e-05 3.11882e-05 3.11774e-05 3.11645e-05 3.11489e-05 3.11303e-05 3.11082e-05 3.10821e-05 3.10513e-05 3.10152e-05 3.09729e-05 3.09237e-05 3.08666e-05 3.08006e-05 3.07248e-05 3.06379e-05 3.05387e-05 3.04259e-05 3.02983e-05 3.01545e-05 2.9993e-05 2.98124e-05 2.96113e-05 2.93882e-05 2.91418e-05 2.88706e-05 2.85736e-05 2.82494e-05 2.7897e-05 2.75155e-05 2.71043e-05 2.66628e-05 2.61906e-05 2.56878e-05 2.51544e-05 2.45909e-05 2.39981e-05 2.33769e-05 2.27286e-05 2.20548e-05 2.13573e-05 2.06382e-05 1.98998e-05 1.91448e-05 1.83758e-05 1.75958e-05 1.68078e-05 1.60151e-05 1.52207e-05 1.44279e-05 1.36399e-05 1.28599e-05 1.20909e-05 1.13359e-05 1.05975e-05 9.87843e-06 9.18093e-06 8.50711e-06 7.85882e-06 7.23761e-06 6.64477e-06 6.08131e-06 5.54792e-06 5.04507e-06 4.57291e-06 4.13138e-06 3.72016e-06 3.33873e-06 2.98635e-06 2.66215e-06 2.36506e-06 2.09394e-06 1.84751e-06 1.62443e-06 1.4233e-06 1.24271e-06 1.08121e-06 9.37363e-07 8.09766e-07 6.97038e-07 5.9785e-07 5.1093e-07 4.35068e-07 3.69125e-07 3.12036e-07 2.62813e-07 2.20544e-07 1.84392e-07 1.53598e-07 1.27473e-07 1.054e-07 8.68244e-08 7.12558e-08 5.826e-08 4.74554e-08 3.85085e-08 3.11294e-08 2.50674e-08 2.01068e-08 1.60628e-08 1.27778e-08 1.01184e-08 7.9714e-09 6.24165e-09 4.84908e-09 3.72637e-09 2.81685e-09 2.07256e-09 1.4525e-09 9.2108e-10 4.46617e-10 0 
0 7.04299e-10 1.4525e-09 2.2905e-09 3.26825e-09 4.44187e-09 5.87598e-09 7.6462e-09 9.84185e-09 1.25691e-08 1.5954e-08 2.01469e-08 2.53257e-08 3.17012e-08 3.95215e-08 4.90779e-08 6.07104e-08 7.48141e-08 9.1846e-08 1.12332e-07 1.36872e-07 1.66152e-07 2.00945e-07 2.42123e-07 2.90661e-07 3.47642e-07 4.14265e-07 4.91846e-07 5.81823e-07 6.85753e-07 8.05316e-07 9.42305e-07 1.09863e-06 1.27628e-06 1.47737e-06 1.70406e-06 1.95858e-06 2.24318e-06 2.56013e-06 2.91168e-06 3.30002e-06 3.72727e-06 4.19543e-06 4.70632e-06 5.26159e-06 5.86265e-06 6.51065e-06 7.2064e-06 7.9504e-06 8.74278e-06 9.58326e-06 1.04711e-05 1.14053e-05 1.23841e-05 1.34057e-05 1.44674e-05 1.55664e-05 1.66995e-05 1.78629e-05 1.90527e-05 2.02643e-05 2.14934e-05 2.27349e-05 2.39841e-05 2.52358e-05 2.6485e-05 2.77266e-05 2.89557e-05 3.01673e-05 3.1357e-05 3.25204e-05 3.36535e-05 3.47526e-05 3.58143e-05 3.68358e-05 3.78147e-05 3.87488e-05 3.96367e-05 4.04772e-05 4.12696e-05 4.20136e-05 4.27093e-05 4.33573e-05 4.39584e-05 4.45137e-05 4.50245e-05 4.54927e-05 4.592e-05 4.63083e-05 4.66598e-05 4.69768e-05 4.72614e-05 4.75159e-05 4.77426e-05 4.79437e-05 4.81214e-05 4.82777e-05 4.84147e-05 4.85342e-05 4.86382e-05 4.87281e-05 4.88057e-05 4.88723e-05 4.89293e-05 4.89779e-05 4.9019e-05 4.90538e-05 4.90831e-05 4.91076e-05 4.91281e-05 4.91452e-05 4.91593e-05 4.91709e-05 4.91804e-05 4.91882e-05 4.91946e-05 4.91997e-05 4.92039e-05 4.92072e-05 4.92099e-05 4.9212e-05 4.92137e-05 4.9215e-05 4.9216e-05 4.92167e-05 4.92172e-05 4.92176e-05 4.92177e-05 4.92177e-05 4.92176e-05 4.92172e-05 4.92167e-05 4.9216e-05 4.9215e-05 4.92137e-05 4.9212e-05 4.92099e-05 4.92072e-05 4.92039e-05 4.91997e-05 4.91946e-05 4.91882e-05 4.91804e-05 4.91709e-05 4.91593e-05 4.91452e-05 4.91281e-05 4.91076e-05 4.90831e-05 4.90538e-05 4.9019e-05 4.89779e-05 4.89293e-05 4.88723e-05 4.88057e-05 4.87281e-05 4.86382e-05 4.85342e-05 4.84147e-05 4.82777e-05 4.81214e-05 4.79437e-05 4.77426e-05 4.75159e-05 4.72614e-05 4.69768e-05 4.66598e-05 4.63083e-05 4.592e-05 4.54927e-05 4.50245e-05 4.45137e-05 4.39584e-05 4.33573e-05 4.27093e-05 4.20136e-05 4.12696e-05 4.04772e-05 3.96367e-05 3.87488e-05 3.78147e-05 3.68358e-05 3.58143e-05 3.47526e-05 3.36535e-05 3.25204e-05 3.1357e-05 3.01673e-05 2.89557e-05 2.77266e-05 2.6485e-05 2.52358e-05 2.39841e-05 2.27349e-05 2.14934e-05 2.02643e-05 1.90527e-05 1.78629e-05 1.66995e-05 1.55664e-05 1.44674e-05 1.34057e-05 1.23841e-05 1.14053e-05 1.04711e-05 9.58326e-06 8.74278e-06 7.9504e-06 7.2064e-06 6.51065e-06 5.86265e-06 5.26159e-06 4.70632e-06 4.19543e-06 3.72727e-06 3.30002e-06 2.91168e-06 2.56013e-06 2.24318e-06 1.95858e-06 1.70406e-06 1.47737e-06 1.27628e-06 1.09863e-06 9.42305e-07 8.05316e-07 6.85753e-07 5.81823e-07 4.91846e-07 4.14265e-07 3.47642e-07 2.90661e-07 2.42123e-07 2.00945e-07 1.66152e-07 1.36872e-07 1.12332e-07 9.1846e-08 7.48141e-08 6.07104e-08 4.90779e-08 3.95215e-08 3.17012e-08 2.53257e-08 2.01469e-08 1.5954e-08 1.25691e-08 9.84185e-09 7.6462e-09 5.87598e-09 4.44187e-09 3.26825e-09 2.2905e-09 1.4525e-09 7.04299e-10 0 
0 1.00496e-09 2.07256e-09 3.26825e-09 4.66328e-09 6.33772e-09 8.38374e-09 1.09092e-08 1.40414e-08 1.79319e-08 2.27605e-08 2.87413e-08 3.61284e-08 4.52221e-08 5.63764e-08 7.00065e-08 8.65972e-08 1.06712e-07 1.31003e-07 1.60218e-07 1.95215e-07 2.3697e-07 2.86587e-07 3.45307e-07 4.1452e-07 4.95772e-07 5.90771e-07 7.01393e-07 8.29687e-07 9.77874e-07 1.14835e-06 1.34366e-06 1.56654e-06 1.81983e-06 2.10653e-06 2.42972e-06 2.79257e-06 3.19831e-06 3.65016e-06 4.15133e-06 4.70495e-06 5.31402e-06 5.9814e-06 6.7097e-06 7.50125e-06 8.35807e-06 9.28177e-06 1.02736e-05 1.13341e-05 1.24636e-05 1.36617e-05 1.49273e-05 1.62588e-05 1.76541e-05 1.91102e-05 2.06236e-05 2.21902e-05 2.38052e-05 2.54635e-05 2.71593e-05 2.88864e-05 3.06382e-05 3.2408e-05 3.41885e-05 3.59727e-05 3.77532e-05 3.95229e-05 4.12748e-05 4.30018e-05 4.46976e-05 4.63559e-05 4.7971e-05 4.95376e-05 5.1051e-05 5.25071e-05 5.39024e-05 5.52339e-05 5.64995e-05 5.76976e-05 5.88271e-05 5.98876e-05 6.08794e-05 6.18031e-05 6.26599e-05 6.34515e-05 6.41798e-05 6.48471e-05 6.54562e-05 6.60098e-05 6.6511e-05 6.69629e-05 6.73686e-05 6.77315e-05 6.80547e-05 6.83414e-05 6.85946e-05 6.88175e-05 6.90128e-05 6.91833e-05 6.93315e-05 6.94598e-05 6.95704e-05 6.96654e-05 6.97467e-05 6.98159e-05 6.98746e-05 6.99242e-05 6.9966e-05 7.0001e-05 7.00302e-05 7.00544e-05 7.00746e-05 7.00911e-05 7.01048e-05 7.01159e-05 7.0125e-05 7.01323e-05 7.01382e-05 7.0143e-05 7.01468e-05 7.01498e-05 7.01522e-05 7.01541e-05 7.01555e-05 7.01565e-05 7.01573e-05 7.01577e-05 7.0158e-05 7.0158e-05 7.01577e-05 7.01573e-05 7.01565e-05 7.01555e-05 7.01541e-05 7.01522e-05 7.01498e-05 7.01468e-05 7.0143e-05 7.01382e-05 7.01323e-05 7.0125e-05 7.01159e-05 7.01048e-05 7.00911e-05 7.00746e-05 7.00544e-05 7.00302e-05 7.0001e-05 6.9966e-05 6.99242e-05 6.98746e-05 6.98159e-05 6.97467e-05 6.96654e-05 6.95704e-05 6.94598e-05 6.93315e-05 6.91833e-05 6.90128e-05 6.88175e-05 6.85946e-05 6.83414e-05 6.80547e-05 6.77315e-05 6.73686e-05 6.69629e-05 6.6511e-05 6.60098e-05 6.54562e-05 6.48471e-05 6.41798e-05 6.34515e-05 6.26599e-05 6.18031e-05 6.08794e-05 5.98876e-05 5.88271e-05 5.76976e-05 5.64995e-05 5.52339e-05 5.39024e-05 5.25071e-05 5.1051e-05 4.95376e-05 4.7971e-05 4.63559e-05 4.46976e-05 4.30018e-05 4.12748e-05 3.95229e-05 3.77532e-05 3.59727e-05 3.41885e-05 3.2408e-05 3.06382e-05 2.88864e-05 2.71593e-05 2.54635e-05 2.38052e-05 2.21902e-05 2.06236e-05 1.91102e-05 1.76541e-05 1.62588e-05 1.49273e-05 1.36617e-05 1.24636e-05 1.13341e-05 1.02736e-05 9.28177e-06 8.35807e-06 7.50125e-06 6.7097e-06 5.9814e-06 5.31402e-06 4.70495e-06 4.15133e-06 3.65016e-06 3.19831e-06 2.79257e-06 2.42972e-06 2.10653e-06 1.81983e-06 1.56654e-06 1.34366e-06 1.14835e-06 9.77874e-07 8.29687e-07 7.01393e-07 5.90771e-07 4.95772e-07 4.1452e-07 3.45307e-07 2.86587e-07 2.3697e-07 1.95215e-07 1.60218e-07 1.31003e-07 1.06712e-07 8.65972e-08 7.00065e-08 5.63764e-08 4.52221e-08 3.61284e-08 2.87413e-08 2.27605e-08 1.79319e-08 1.40414e-08 1.09092e-08 8.38374e-09 6.33772e-09 4.66328e-09 3.26825e-09 2.07256e-09 1.00496e-09 0 
0 1.36588e-09 2.81685e-09 4.44187e-09 6.33772e-09 8.61318e-09 1.13935e-08 1.48251e-08 1.90811e-08 2.43671e-08 3.09275e-08 3.90531e-08 4.90889e-08 6.14429e-08 7.65957e-08 9.51111e-08 1.17648e-07 1.44971e-07 1.77965e-07 2.17647e-07 2.65181e-07 3.21892e-07 3.89279e-07 4.69028e-07 5.63025e-07 6.73368e-07 8.02378e-07 9.526e-07 1.12682e-06 1.32804e-06 1.55953e-06 1.82474e-06 2.12737e-06 2.47129e-06 2.86055e-06 3.29937e-06 3.79202e-06 4.3429e-06 4.95637e-06 5.63678e-06 6.38839e-06 7.21529e-06 8.12132e-06 9.11003e-06 1.01846e-05 1.13478e-05 1.26017e-05 1.39481e-05 1.53878e-05 1.69211e-05 1.85474e-05 2.02654e-05 2.20729e-05 2.39669e-05 2.59434e-05 2.79978e-05 3.01243e-05 3.23166e-05 3.45676e-05 3.68695e-05 3.92138e-05 4.15917e-05 4.39939e-05 4.64108e-05 4.88326e-05 5.12495e-05 5.36517e-05 5.60296e-05 5.8374e-05 6.06758e-05 6.29268e-05 6.51191e-05 6.72456e-05 6.93e-05 7.12765e-05 7.31705e-05 7.4978e-05 7.6696e-05 7.83223e-05 7.98556e-05 8.12953e-05 8.26417e-05 8.38956e-05 8.50588e-05 8.61334e-05 8.71221e-05 8.80281e-05 8.8855e-05 8.96066e-05 9.0287e-05 9.09005e-05 9.14514e-05 9.1944e-05 9.23829e-05 9.27721e-05 9.3116e-05 9.34187e-05 9.36839e-05 9.39154e-05 9.41166e-05 9.42908e-05 9.4441e-05 9.457e-05 9.46804e-05 9.47744e-05 9.48541e-05 9.49215e-05 9.49782e-05 9.50258e-05 9.50654e-05 9.50984e-05 9.51257e-05 9.51483e-05 9.51668e-05 9.51819e-05 9.51942e-05 9.52042e-05 9.52123e-05 9.52187e-05 9.52239e-05 9.5228e-05 9.52312e-05 9.52337e-05 9.52356e-05 9.52371e-05 9.52381e-05 9.52387e-05 9.5239e-05 9.5239e-05 9.52387e-05 9.52381e-05 9.52371e-05 9.52356e-05 9.52337e-05 9.52312e-05 9.5228e-05 9.52239e-05 9.52187e-05 9.52123e-05 9.52042e-05 9.51942e-05 9.51819e-05 9.51668e-05 9.51483e-05 9.51257e-05 9.50984e-05 9.50654e-05 9.50258e-05 9.49782e-05 9.49215e-05 9.48541e-05 9.47744e-05 9.46804e-05 9.457e-05 9.4441e-05 9.42908e-05 9.41166e-05 9.39154e-05 9.36839e-05 9.34187e-05 9.3116e-05 9.27721e-05 9.23829e-05 9.1944e-05 9.14514e-05 9.09005e-05 9.0287e-05 8.96066e-05 8.8855e-05 8.80281e-05 8.71221e-05 8.61334e-05 8.50588e-05 8.38956e-05 8.26417e-05 8.12953e-05 7.98556e-05 7.83223e-05 7.6696e-05 7.4978e-05 7.31705e-05 7.12765e-05 6.93e-05 6.72456e-05 6.51191e-05 6.29268e-05 6.06758e-05 5.8374e-05 5.60296e-05 5.36517e-05 5.12495e-05 4.88326e-05 4.64108e-05 4.39939e-05 4.15917e-05 3.92138e-05 3.68695e-05 3.45676e-05 3.23166e-05 3.01243e-05 2.79978e-05 2.59434e-05 2.39669e-05 2.20729e-05 2.02654e-05 1.85474e-05 1.69211e-05 1.53878e-05 1.39481e-05 1.26017e-05 1.13478e-05 1.01846e-05 9.11003e-06 8.12132e-06 7.21529e-06 6.38839e-06 5.63678e-06 4.95637e-06 4.3429e-06 3.79202e-06 3.29937e-06 2.86055e-06 2.47129e-06 2.12737e-06 1.82474e-06 1.55953e-06 1.32804e-06 1.12682e-06 9.526e-07 8.02378e-07 6.73368e-07 5.63025e-07 4.69028e-07 3.89279e-07 3.21892e-07 2.65181e-07 2.17647e-07 1.77965e-07 1.44971e-07 1.17648e-07 9.51111e-08 7.65957e-08 6.14429e-08 4.90889e-08 3.90531e-08 3.09275e-08 2.43671e-08 1.90811e-08 1.48251e-08 1.13935e-08 8.61318e-09 6.33772e-09 4.44187e-09 2.81685e-09 1.36588e-09 0 
0 1.80692e-09 3.72637e-09 5.87598e-09 8.38374e-09 1.13935e-08 1.50707e-08 1.96093e-08 2.52378e-08 3.22282e-08 4.09036e-08 5.16484e-08 6.49185e-08 8.12532e-08 1.01288e-07 1.25768e-07 1.55563e-07 1.91685e-07 2.35303e-07 2.87761e-07 3.50597e-07 4.25562e-07 5.14635e-07 6.20046e-07 7.44287e-07 8.90129e-07 1.06064e-06 1.25918e-06 1.48942e-06 1.75536e-06 2.06127e-06 2.41175e-06 2.81167e-06 3.26614e-06 3.78053e-06 4.36037e-06 5.01135e-06 5.73924e-06 6.54982e-06 7.44885e-06 8.44193e-06 9.53446e-06 1.07315e-05 1.20378e-05 1.34575e-05 1.49943e-05 1.66509e-05 1.84296e-05 2.03316e-05 2.23573e-05 2.45058e-05 2.67754e-05 2.91632e-05 3.16653e-05 3.42764e-05 3.69902e-05 3.97994e-05 4.26955e-05 4.5669e-05 4.87098e-05 5.18067e-05 5.49479e-05 5.81212e-05 6.13139e-05 6.45131e-05 6.77058e-05 7.08791e-05 7.40203e-05 7.71172e-05 8.01579e-05 8.31315e-05 8.60276e-05 8.88368e-05 9.15506e-05 9.41617e-05 9.66637e-05 9.90516e-05 0.000101321 0.00010347 0.000105495 0.000107397 0.000109176 0.000110833 0.000112369 0.000113789 0.000115095 0.000116293 0.000117385 0.000118378 0.000119277 0.000120088 0.000120816 0.000121467 0.000122046 0.000122561 0.000123015 0.000123415 0.000123766 0.000124072 0.000124338 0.000124568 0.000124766 0.000124937 0.000125083 0.000125207 0.000125312 0.000125401 0.000125476 0.000125539 0.000125592 0.000125635 0.000125671 0.000125701 0.000125726 0.000125746 0.000125762 0.000125775 0.000125786 0.000125794 0.000125801 0.000125807 0.000125811 0.000125814 0.000125817 0.000125819 0.00012582 0.000125821 0.000125821 0.000125821 0.000125821 0.00012582 0.000125819 0.000125817 0.000125814 0.000125811 0.000125807 0.000125801 0.000125794 0.000125786 0.000125775 0.000125762 0.000125746 0.000125726 0.000125701 0.000125671 0.000125635 0.000125592 0.000125539 0.000125476 0.000125401 0.000125312 0.000125207 0.000125083 0.000124937 0.000124766 0.000124568 0.000124338 0.000124072 0.000123766 0.000123415 0.000123015 0.000122561 0.000122046 0.000121467 0.000120816 0.000120088 0.000119277 0.000118378 0.000117385 0.000116293 0.000115095 0.000113789 0.000112369 0.000110833 0.000109176 0.000107397 0.000105495 0.00010347 0.000101321 9.90516e-05 9.66637e-05 9.41617e-05 9.15506e-05 8.88368e-05 8.60276e-05 8.31315e-05 8.01579e-05 7.71172e-05 7.40203e-05 7.08791e-05 6.77058e-05 6.45131e-05 6.13139e-05 5.81212e-05 5.49479e-05 5.18067e-05 4.87098e-05 4.5669e-05 4.26955e-05 3.97994e-05 3.69902e-05 3.42764e-05 3.16653e-05 2.91632e-05 2.67754e-05 2.45058e-05 2.23573e-05 2.03316e-05 1.84296e-05 1.66509e-05 1.49943e-05 1.34575e-05 1.20378e-05 1.07315e-05 9.53446e-06 8.44193e-06 7.44885e-06 6.54982e-06 5.73924e-06 5.01135e-06 4.36037e-06 3.78053e-06 3.26614e-06 2.81167e-06 2.41175e-06 2.06127e-06 1.75536e-06 1.48942e-06 1.25918e-06 1.06064e-06 8.90129e-07 7.44287e-07 6.20046e-07 5.14635e-07 4.25562e-07 3.50597e-07 2.87761e-07 2.35303e-07 1.91685e-07 1.55563e-07 1.25768e-07 1.01288e-07 8.12532e-08 6.49185e-08 5.16484e-08 4.09036e-08 3.22282e-08 2.52378e-08 1.96093e-08 1.50707e-08 1.13935e-08 8.38374e-09 5.87598e-09 3.72637e-09 1.80692e-09 0 
0 2.35136e-09 4.84908e-09 7.6462e-09 1.09092e-08 1.48251e-08 1.96093e-08 2.55136e-08 3.28357e-08 4.19288e-08 5.32134e-08 6.71891e-08 8.44488e-08 1.05694e-07 1.31749e-07 1.63585e-07 2.02332e-07 2.49305e-07 3.06023e-07 3.74234e-07 4.55936e-07 5.53406e-07 6.69217e-07 8.06264e-07 9.67787e-07 1.15739e-06 1.37905e-06 1.63715e-06 1.93645e-06 2.28214e-06 2.67978e-06 3.13535e-06 3.65515e-06 4.24586e-06 4.91442e-06 5.66805e-06 6.51411e-06 7.4601e-06 8.51356e-06 9.68193e-06 1.09725e-05 1.23923e-05 1.39479e-05 1.56454e-05 1.74903e-05 1.94873e-05 2.164e-05 2.39513e-05 2.64228e-05 2.90548e-05 3.18466e-05 3.47956e-05 3.78983e-05 4.11493e-05 4.4542e-05 4.80681e-05 5.17181e-05 5.5481e-05 5.93446e-05 6.32954e-05 6.73191e-05 7.14005e-05 7.55235e-05 7.96717e-05 8.38283e-05 8.79765e-05 9.20995e-05 9.61809e-05 0.000100205 0.000104155 0.000108019 0.000111782 0.000115432 0.000118958 0.000122351 0.000125602 0.000128704 0.000131653 0.000134445 0.000137077 0.000139549 0.00014186 0.000144013 0.00014601 0.000147855 0.000149552 0.000151108 0.000152528 0.000153818 0.000154986 0.00015604 0.000156986 0.000157832 0.000158586 0.000159254 0.000159845 0.000160365 0.00016082 0.000161218 0.000161564 0.000161863 0.000162121 0.000162343 0.000162532 0.000162694 0.000162831 0.000162947 0.000163044 0.000163126 0.000163194 0.000163251 0.000163298 0.000163336 0.000163368 0.000163394 0.000163415 0.000163433 0.000163446 0.000163458 0.000163466 0.000163473 0.000163479 0.000163483 0.000163487 0.000163489 0.000163491 0.000163492 0.000163492 0.000163492 0.000163492 0.000163491 0.000163489 0.000163487 0.000163483 0.000163479 0.000163473 0.000163466 0.000163458 0.000163446 0.000163433 0.000163415 0.000163394 0.000163368 0.000163336 0.000163298 0.000163251 0.000163194 0.000163126 0.000163044 0.000162947 0.000162831 0.000162694 0.000162532 0.000162343 0.000162121 0.000161863 0.000161564 0.000161218 0.00016082 0.000160365 0.000159845 0.000159254 0.000158586 0.000157832 0.000156986 0.00015604 0.000154986 0.000153818 0.000152528 0.000151108 0.000149552 0.000147855 0.00014601 0.000144013 0.00014186 0.000139549 0.000137077 0.000134445 0.000131653 0.000128704 0.000125602 0.000122351 0.000118958 0.000115432 0.000111782 0.000108019 0.000104155 0.000100205 9.61809e-05 9.20995e-05 8.79765e-05 8.38283e-05 7.96717e-05 7.55235e-05 7.14005e-05 6.73191e-05 6.32954e-05 5.93446e-05 5.5481e-05 5.17181e-05 4.80681e-05 4.4542e-05 4.11493e-05 3.78983e-05 3.47956e-05 3.18466e-05 2.90548e-05 2.64228e-05 2.39513e-05 2.164e-05 1.94873e-05 1.74903e-05 1.56454e-05 1.39479e-05 1.23923e-05 1.09725e-05 9.68193e-06 8.51356e-06 7.4601e-06 6.51411e-06 5.66805e-06 4.91442e-06 4.24586e-06 3.65515e-06 3.13535e-06 2.67978e-06 2.28214e-06 1.93645e-06 1.63715e-06 1.37905e-06 1.15739e-06 9.67787e-07 8.06264e-07 6.69217e-07 5.53406e-07 4.55936e-07 3.74234e-07 3.06023e-07 2.49305e-07 2.02332e-07 1.63585e-07 1.31749e-07 1.05694e-07 8.44488e-08 6.71891e-08 5.32134e-08 4.19288e-08 3.28357e-08 2.55136e-08 1.96093e-08 1.48251e-08 1.09092e-08 7.6462e-09 4.84908e-09 2.35136e-09 0 
0 3.02666e-09 6.24165e-09 9.84185e-09 1.40414e-08 1.90811e-08 2.52378e-08 3.28357e-08 4.22574e-08 5.39575e-08 6.84765e-08 8.64573e-08 1.08662e-07 1.35993e-07 1.69511e-07 2.10463e-07 2.60303e-07 3.20722e-07 3.93673e-07 4.81402e-07 5.86481e-07 7.11834e-07 8.60768e-07 1.03701e-06 1.24472e-06 1.48852e-06 1.77355e-06 2.10541e-06 2.49025e-06 2.93471e-06 3.44597e-06 4.03167e-06 4.69995e-06 5.45936e-06 6.31885e-06 7.28766e-06 8.37528e-06 9.59134e-06 1.09455e-05 1.24474e-05 1.41063e-05 1.59312e-05 1.79307e-05 2.01126e-05 2.24839e-05 2.50505e-05 2.78174e-05 3.0788e-05 3.39644e-05 3.73472e-05 4.09351e-05 4.47252e-05 4.87127e-05 5.28908e-05 5.72509e-05 6.17824e-05 6.64732e-05 7.1309e-05 7.62741e-05 8.13514e-05 8.65224e-05 9.17673e-05 9.70658e-05 0.000102397 0.000107738 0.000113069 0.000118368 0.000123613 0.000128784 0.000133861 0.000138826 0.000143662 0.000148353 0.000152884 0.000157244 0.000161422 0.00016541 0.0001692 0.000172788 0.000176171 0.000179347 0.000182318 0.000185085 0.000187651 0.000190022 0.000192204 0.000194204 0.000196029 0.000197688 0.00019919 0.000200544 0.00020176 0.000202847 0.000203816 0.000204676 0.000205435 0.000206103 0.000206689 0.0002072 0.000207645 0.00020803 0.000208361 0.000208647 0.00020889 0.000209098 0.000209274 0.000209423 0.000209549 0.000209654 0.000209741 0.000209814 0.000209875 0.000209924 0.000209965 0.000209999 0.000210026 0.000210048 0.000210066 0.00021008 0.000210092 0.000210101 0.000210108 0.000210114 0.000210118 0.000210121 0.000210123 0.000210125 0.000210125 0.000210125 0.000210125 0.000210123 0.000210121 0.000210118 0.000210114 0.000210108 0.000210101 0.000210092 0.00021008 0.000210066 0.000210048 0.000210026 0.000209999 0.000209965 0.000209924 0.000209875 0.000209814 0.000209741 0.000209654 0.000209549 0.000209423 0.000209274 0.000209098 0.00020889 0.000208647 0.000208361 0.00020803 0.000207645 0.0002072 0.000206689 0.000206103 0.000205435 0.000204676 0.000203816 0.000202847 0.00020176 0.000200544 0.00019919 0.000197688 0.000196029 0.000194204 0.000192204 0.000190022 0.000187651 0.000185085 0.000182318 0.000179347 0.000176171 0.000172788 0.0001692 0.00016541 0.000161422 0.000157244 0.000152884 0.000148353 0.000143662 0.000138826 0.000133861 0.000128784 0.000123613 0.000118368 0.000113069 0.000107738 0.000102397 9.70658e-05 9.17673e-05 8.65224e-05 8.13514e-05 7.62741e-05 7.1309e-05 6.64732e-05 6.17824e-05 5.72509e-05 5.28908e-05 4.87127e-05 4.47252e-05 4.09351e-05 3.73472e-05 3.39644e-05 3.0788e-05 2.78174e-05 2.50505e-05 2.24839e-05 2.01126e-05 1.79307e-05 1.59312e-05 1.41063e-05 1.24474e-05 1.09455e-05 9.59134e-06 8.37528e-06 7.28766e-06 6.31885e-06 5.45936e-06 4.69995e-06 4.03167e-06 3.44597e-06 2.93471e-06 2.49025e-06 2.10541e-06 1.77355e-06 1.48852e-06 1.24472e-06 1.03701e-06 8.60768e-07 7.11834e-07 5.86481e-07 4.81402e-07 3.93673e-07 3.20722e-07 2.60303e-07 2.10463e-07 1.69511e-07 1.35993e-07 1.08662e-07 8.64573e-08 6.84765e-08 5.39575e-08 4.22574e-08 3.28357e-08 2.52378e-08 1.90811e-08 1.40414e-08 9.84185e-09 6.24165e-09 3.02666e-09 0 
0 3.86549e-09 7.9714e-09 1.25691e-08 1.79319e-08 2.43671e-08 3.22282e-08 4.19288e-08 5.39575e-08 6.88941e-08 8.74286e-08 1.10381e-07 1.38724e-07 1.73609e-07 2.1639e-07 2.68656e-07 3.32264e-07 4.09369e-07 5.02464e-07 6.14414e-07 7.48498e-07 9.08447e-07 1.09848e-06 1.32334e-06 1.58835e-06 1.8994e-06 2.26303e-06 2.6864e-06 3.17733e-06 3.74432e-06 4.39649e-06 5.1436e-06 5.99602e-06 6.96467e-06 8.06093e-06 9.2966e-06 1.06838e-05 1.22347e-05 1.39618e-05 1.58772e-05 1.79928e-05 2.03201e-05 2.28701e-05 2.56525e-05 2.86764e-05 3.19493e-05 3.54776e-05 3.92656e-05 4.3316e-05 4.76295e-05 5.22045e-05 5.70372e-05 6.21216e-05 6.74489e-05 7.30083e-05 7.87863e-05 8.47672e-05 9.0933e-05 9.72637e-05 0.000103737 0.00011033 0.000117018 0.000123773 0.00013057 0.000137381 0.000144178 0.000150934 0.000157621 0.000164214 0.000170688 0.000177018 0.000183184 0.000189165 0.000194943 0.000200502 0.00020583 0.000210914 0.000215747 0.000220322 0.000224635 0.000228686 0.000232474 0.000236002 0.000239275 0.000242299 0.000245081 0.000247631 0.000249959 0.000252074 0.00025399 0.000255717 0.000257268 0.000258655 0.00025989 0.000260987 0.000261955 0.000262808 0.000263555 0.000264207 0.000264774 0.000265265 0.000265688 0.000266052 0.000266363 0.000266628 0.000266853 0.000267043 0.000267203 0.000267337 0.000267449 0.000267542 0.000267619 0.000267683 0.000267735 0.000267778 0.000267812 0.000267841 0.000267863 0.000267882 0.000267896 0.000267908 0.000267917 0.000267924 0.000267929 0.000267934 0.000267936 0.000267938 0.000267939 0.000267939 0.000267938 0.000267936 0.000267934 0.000267929 0.000267924 0.000267917 0.000267908 0.000267896 0.000267882 0.000267863 0.000267841 0.000267812 0.000267778 0.000267735 0.000267683 0.000267619 0.000267542 0.000267449 0.000267337 0.000267203 0.000267043 0.000266853 0.000266628 0.000266363 0.000266052 0.000265688 0.000265265 0.000264774 0.000264207 0.000263555 0.000262808 0.000261955 0.000260987 0.00025989 0.000258655 0.000257268 0.000255717 0.00025399 0.000252074 0.000249959 0.000247631 0.000245081 0.000242299 0.000239275 0.000236002 0.000232474 0.000228686 0.000224635 0.000220322 0.000215747 0.000210914 0.00020583 0.000200502 0.000194943 0.000189165 0.000183184 0.000177018 0.000170688 0.000164214 0.000157621 0.000150934 0.000144178 0.000137381 0.00013057 0.000123773 0.000117018 0.00011033 0.000103737 9.72637e-05 9.0933e-05 8.47672e-05 7.87863e-05 7.30083e-05 6.74489e-05 6.21216e-05 5.70372e-05 5.22045e-05 4.76295e-05 4.3316e-05 3.92656e-05 3.54776e-05 3.19493e-05 2.86764e-05 2.56525e-05 2.28701e-05 2.03201e-05 1.79928e-05 1.58772e-05 1.39618e-05 1.22347e-05 1.06838e-05 9.2966e-06 8.06093e-06 6.96467e-06 5.99602e-06 5.1436e-06 4.39649e-06 3.74432e-06 3.17733e-06 2.6864e-06 2.26303e-06 1.8994e-06 1.58835e-06 1.32334e-06 1.09848e-06 9.08447e-07 7.48498e-07 6.14414e-07 5.02464e-07 4.09369e-07 3.32264e-07 2.68656e-07 2.1639e-07 1.73609e-07 1.38724e-07 1.10381e-07 8.74286e-08 6.88941e-08 5.39575e-08 4.19288e-08 3.22282e-08 2.43671e-08 1.79319e-08 1.25691e-08 7.9714e-09 3.86549e-09 0 