<?xml version="1.0"?>
<VTKFile type="ImageData" version="0.1" byte_order="LittleEndian">
  <ImageData WholeExtent="0 255 0 255 0 0" Origin="0 0 0" Spacing="1 1 1">
  <Piece Extent="0 255 0 255 0 0">
    <PointData>
      <DataArray type="Float32" Name="scalar_data" format="ascii" >0 0 0 0 0 0 0 0 0 0 0 0 0 0 0 0 0 0 0 0 0 0 0 0 0 0 0 0 0 0 0 0 0 0 0 0 0 0 0 0 0 0 0 0 0 0 0 0 0 0 0 0 0 0 0 0 0 0 0 0 0 0 0 0 0 0 0 0 0 0 0 0 0 0 0 0 0 0 0 0 0 0 0 0 0 0 0 0 0 0 0 0 0 0 0 0 0 0 0 0 0 0 0 0 0 0 0 0 0 0 0 0 0 0 0 0 0 0 0 0 0 0 0 0 0 0 0 0 0 0 0 0 0 0 0 0 0 0 0 0 0 0 0 0 0 0 0 0 0 0 0 0 0 0 0 0 0 0 0 0 0 0 0 0 0 0 0 0 0 0 0 0 0 0 0 0 0 0 0 0 0 0 0 0 0 0 0 0 0 0 0 0 0 0 0 0 0 0 0 0 0 0 0 0 0 0 0 0 0 0 0 0 0 0 0 0 0 0 0 0 0 0 0 0 0 0 0 0 0 0 0 0 0 0 0 0 0 0 0 0 0 0 0 0 0 0 0 0 0 0 0 0 0 0 0 0 
0 0 0 0 0 0 0 0 0 0 0 0 0 0 0 0 0 1.4013e-45 1.26117e-44 8.40779e-44 5.17079e-43 3.00298e-42 1.67287e-41 8.93538e-41 4.57647e-40 2.24856e-39 1.06024e-38 4.79936e-38 2.08631e-37 8.71202e-37 3.49558e-36 1.34799e-35 4.99705e-35 1.78111e-34 6.10517e-34 2.01283e-33 6.38386e-33 1.948e-32 5.71977e-32 1.61624e-31 4.39558e-31 1.1507e-30 2.8999e-30 7.03604e-30 1.64378e-29 3.69811e-29 8.01285e-29 1.67234e-28 3.36245e-28 6.51412e-28 1.21621e-27 2.18883e-27 3.79821e-27 6.35689e-27 1.02651e-26 1.6e-26 2.40839e-26 3.50297e-26 4.92651e-26 6.70469e-26 8.83795e-26 1.12958e-25 1.40154e-25 1.69053e-25 1.98543e-25 2.27441e-25 2.54637e-25 2.79216e-25 3.00549e-25 3.1833e-25 3.32566e-25 3.43512e-25 3.51596e-25 3.5733e-25 3.61239e-25 3.63797e-25 3.65407e-25 3.66379e-25 3.66944e-25 3.67259e-25 3.67428e-25 3.67515e-25 3.67559e-25 3.67579e-25 3.67588e-25 3.67593e-25 3.67594e-25 3.67595e-25 3.67595e-25 3.67595e-25 3.67596e-25 3.67596e-25 3.67596e-25 3.67596e-25 3.67596e-25 3.67596e-25 3.67596e-25 3.67596e-25 3.67596e-25 3.67596e-25 3.67596e-25 3.67596e-25 3.67596e-25 3.67596e-25 3.67596e-25 3.67596e-25 3.67596e-25 3.67596e-25 3.67596e-25 3.67596e-25 3.67596e-25 3.67596e-25 3.67596e-25 3.67596e-25 3.67596e-25 3.67596e-25 3.67596e-25 3.67596e-25 3.67596e-25 3.67596e-25 3.67596e-25 3.67596e-25 3.67596e-25 3.67596e-25 3.67596e-25 3.67596e-25 3.67596e-25 3.67596e-25 3.67596e-25 3.67596e-25 3.67596e-25 3.67596e-25 3.67596e-25 3.67596e-25 3.67596e-25 3.67596e-25 3.67596e-25 3.67596e-25 3.67596e-25 3.67596e-25 3.67596e-25 3.67596e-25 3.67596e-25 3.67596e-25 3.67596e-25 3.67596e-25 3.67596e-25 3.67596e-25 3.67596e-25 3.67596e-25 3.67596e-25 3.67596e-25 3.67596e-25 3.67596e-25 3.67596e-25 3.67596e-25 3.67596e-25 3.67596e-25 3.67596e-25 3.67596e-25 3.67596e-25 3.67596e-25 3.67596e-25 3.67596e-25 3.67596e-25 3.67596e-25 3.67595e-25 3.67595e-25 3.67595e-25 3.67594e-25 3.67593e-25 3.67588e-25 3.67579e-25 3.67559e-25 3.67515e-25 3.67428e-25 3.67259e-25 3.66944e-25 3.66379e-25 3.65407e-25 3.63797e-25 3.61239e-25 3.5733e-25 3.51596e-25 3.43512e-25 3.32566e-25 3.1833e-25 3.00549e-25 2.79216e-25 2.54637e-25 2.27441e-25 1.98543e-25 1.69053e-25 1.40154e-25 1.12958e-25 8.83795e-26 6.70469e-26 4.92651e-26 3.50297e-26 2.40839e-26 1.6e-26 1.02651e-26 6.35689e-27 3.79821e-27 2.18883e-27 1.21621e-27 6.51412e-28 3.36245e-28 1.67234e-28 8.01285e-29 3.69811e-29 1.64378e-29 7.03604e-30 2.8999e-30 1.1507e-30 4.39558e-31 1.61624e-31 5.71977e-32 1.948e-32 6.38386e-33 2.01283e-33 6.10517e-34 1.78111e-34 4.99705e-35 1.34799e-35 3.49558e-36 8.71202e-37 2.08631e-37 4.79936e-38 1.06024e-38 2.24856e-39 4.57647e-40 8.93538e-41 1.67287e-41 3.00298e-42 5.17079e-43 8.40779e-44 1.26117e-44 1.4013e-45 0 0 0 0 0 0 0 0 0 0 0 0 0 0 0 0 0 
0 0 0 0 0 0 0 0 0 0 0 0 0 0 0 0 1.4013e-45 1.68156e-44 1.14906e-43 7.20267e-43 4.28517e-42 2.44008e-41 1.33188e-40 6.97323e-40 3.5035e-39 1.68981e-38 7.827e-38 3.48269e-37 1.48911e-36 6.11995e-36 2.41816e-35 9.18831e-35 3.35807e-34 1.18067e-33 3.99414e-33 1.3003e-32 4.07424e-32 1.22883e-31 3.56804e-31 9.9749e-31 2.68518e-30 6.96093e-30 1.73794e-29 4.17943e-29 9.68186e-29 2.16077e-28 4.64637e-28 9.62793e-28 1.92278e-27 3.70146e-27 6.86988e-27 1.22957e-26 2.12274e-26 3.53601e-26 5.68534e-26 8.82686e-26 1.32396e-25 1.9196e-25 2.69218e-25 3.65502e-25 4.80799e-25 6.13447e-25 7.60069e-25 9.15774e-25 1.07463e-24 1.23034e-24 1.37696e-24 1.50961e-24 1.6249e-24 1.72119e-24 1.79844e-24 1.85801e-24 1.90214e-24 1.93355e-24 1.95504e-24 1.96918e-24 1.97811e-24 1.98353e-24 1.9867e-24 1.98848e-24 1.98944e-24 1.98994e-24 1.99019e-24 1.99031e-24 1.99036e-24 1.99039e-24 1.9904e-24 1.9904e-24 1.9904e-24 1.9904e-24 1.9904e-24 1.9904e-24 1.9904e-24 1.9904e-24 1.9904e-24 1.99041e-24 1.99041e-24 1.99041e-24 1.99041e-24 1.99041e-24 1.99041e-24 1.99041e-24 1.99041e-24 1.99041e-24 1.99041e-24 1.99041e-24 1.99041e-24 1.99041e-24 1.99041e-24 1.99041e-24 1.99041e-24 1.99041e-24 1.99041e-24 1.99041e-24 1.99041e-24 1.99041e-24 1.99041e-24 1.99041e-24 1.99041e-24 1.99041e-24 1.99041e-24 1.99041e-24 1.99041e-24 1.99041e-24 1.99041e-24 1.99041e-24 1.99041e-24 1.99041e-24 1.99041e-24 1.99041e-24 1.99041e-24 1.99041e-24 1.99041e-24 1.99041e-24 1.99041e-24 1.99041e-24 1.99041e-24 1.99041e-24 1.99041e-24 1.99041e-24 1.99041e-24 1.99041e-24 1.99041e-24 1.99041e-24 1.99041e-24 1.99041e-24 1.99041e-24 1.99041e-24 1.99041e-24 1.99041e-24 1.99041e-24 1.99041e-24 1.99041e-24 1.99041e-24 1.99041e-24 1.99041e-24 1.99041e-24 1.99041e-24 1.99041e-24 1.99041e-24 1.99041e-24 1.9904e-24 1.9904e-24 1.9904e-24 1.9904e-24 1.9904e-24 1.9904e-24 1.9904e-24 1.9904e-24 1.9904e-24 1.99039e-24 1.99036e-24 1.99031e-24 1.99019e-24 1.98994e-24 1.98944e-24 1.98848e-24 1.9867e-24 1.98353e-24 1.97811e-24 1.96918e-24 1.95504e-24 1.93355e-24 1.90214e-24 1.85801e-24 1.79844e-24 1.72119e-24 1.6249e-24 1.50961e-24 1.37696e-24 1.23034e-24 1.07463e-24 9.15774e-25 7.60069e-25 6.13447e-25 4.80799e-25 3.65502e-25 2.69218e-25 1.9196e-25 1.32396e-25 8.82686e-26 5.68534e-26 3.53601e-26 2.12274e-26 1.22957e-26 6.86988e-27 3.70146e-27 1.92278e-27 9.62793e-28 4.64637e-28 2.16077e-28 9.68186e-29 4.17943e-29 1.73794e-29 6.96093e-30 2.68518e-30 9.9749e-31 3.56804e-31 1.22883e-31 4.07424e-32 1.3003e-32 3.99414e-33 1.18067e-33 3.35807e-34 9.18831e-35 2.41816e-35 6.11995e-36 1.48911e-36 3.48269e-37 7.827e-38 1.68981e-38 3.5035e-39 6.97323e-40 1.33188e-40 2.44008e-41 4.28517e-42 7.20267e-43 1.14906e-43 1.68156e-44 1.4013e-45 0 0 0 0 0 0 0 0 0 0 0 0 0 0 0 0 
0 0 0 0 0 0 0 0 0 0 0 0 0 0 0 2.8026e-45 2.24208e-44 1.5134e-43 9.59889e-43 5.81959e-42 3.38161e-41 1.88442e-40 1.00758e-39 5.17142e-39 2.54886e-38 1.20682e-37 5.49091e-37 2.40149e-36 1.00989e-35 4.0844e-35 1.58909e-34 5.9487e-34 2.14305e-33 7.43114e-33 2.48061e-32 7.97263e-32 2.46743e-31 7.35422e-31 2.11119e-30 5.83796e-30 1.55518e-29 3.99141e-29 9.87048e-29 2.35211e-28 5.40167e-28 1.19562e-27 2.55095e-27 5.24701e-27 1.04059e-26 1.99014e-26 3.67112e-26 6.53316e-26 1.12194e-25 1.85979e-25 2.9769e-25 4.60306e-25 6.87892e-25 9.94105e-25 1.39017e-24 1.88262e-24 2.47116e-24 3.14725e-24 3.89377e-24 4.68601e-24 5.49412e-24 6.28637e-24 7.03288e-24 7.70898e-24 8.29752e-24 8.78996e-24 9.18603e-24 9.49224e-24 9.71983e-24 9.88244e-24 9.99415e-24 1.00679e-23 1.01148e-23 1.01434e-23 1.01602e-23 1.01697e-23 1.01749e-23 1.01776e-23 1.01789e-23 1.01796e-23 1.01799e-23 1.018e-23 1.01801e-23 1.01801e-23 1.01801e-23 1.01801e-23 1.01801e-23 1.01801e-23 1.01801e-23 1.01801e-23 1.01801e-23 1.01801e-23 1.01801e-23 1.01801e-23 1.01801e-23 1.01801e-23 1.01801e-23 1.01801e-23 1.01801e-23 1.01801e-23 1.01801e-23 1.01801e-23 1.01801e-23 1.01801e-23 1.01801e-23 1.01801e-23 1.01801e-23 1.01801e-23 1.01801e-23 1.01801e-23 1.01801e-23 1.01801e-23 1.01801e-23 1.01801e-23 1.01801e-23 1.01801e-23 1.01801e-23 1.01801e-23 1.01801e-23 1.01801e-23 1.01801e-23 1.01801e-23 1.01801e-23 1.01801e-23 1.01801e-23 1.01801e-23 1.01801e-23 1.01801e-23 1.01801e-23 1.01801e-23 1.01801e-23 1.01801e-23 1.01801e-23 1.01801e-23 1.01801e-23 1.01801e-23 1.01801e-23 1.01801e-23 1.01801e-23 1.01801e-23 1.01801e-23 1.01801e-23 1.01801e-23 1.01801e-23 1.01801e-23 1.01801e-23 1.01801e-23 1.01801e-23 1.01801e-23 1.01801e-23 1.01801e-23 1.01801e-23 1.01801e-23 1.01801e-23 1.01801e-23 1.01801e-23 1.01801e-23 1.01801e-23 1.01801e-23 1.01801e-23 1.01801e-23 1.01801e-23 1.01801e-23 1.01801e-23 1.01801e-23 1.01801e-23 1.018e-23 1.01799e-23 1.01796e-23 1.01789e-23 1.01776e-23 1.01749e-23 1.01697e-23 1.01602e-23 1.01434e-23 1.01148e-23 1.00679e-23 9.99415e-24 9.88244e-24 9.71983e-24 9.49224e-24 9.18603e-24 8.78996e-24 8.29752e-24 7.70898e-24 7.03288e-24 6.28637e-24 5.49412e-24 4.68601e-24 3.89377e-24 3.14725e-24 2.47116e-24 1.88262e-24 1.39017e-24 9.94105e-25 6.87892e-25 4.60306e-25 2.9769e-25 1.85979e-25 1.12194e-25 6.53316e-26 3.67112e-26 1.99014e-26 1.04059e-26 5.24701e-27 2.55095e-27 1.19562e-27 5.40167e-28 2.35211e-28 9.87048e-29 3.99141e-29 1.55518e-29 5.83796e-30 2.11119e-30 7.35422e-31 2.46743e-31 7.97263e-32 2.48061e-32 7.43114e-33 2.14305e-33 5.9487e-34 1.58909e-34 4.0844e-35 1.00989e-35 2.40149e-36 5.49091e-37 1.20682e-37 2.54886e-38 5.17142e-39 1.00758e-39 1.88442e-40 3.38161e-41 5.81959e-42 9.59889e-43 1.5134e-43 2.24208e-44 2.8026e-45 0 0 0 0 0 0 0 0 0 0 0 0 0 0 0 
0 0 0 0 0 0 0 0 0 0 0 0 0 0 2.8026e-45 2.8026e-44 1.89175e-43 1.23034e-42 7.61746e-42 4.51667e-41 2.56871e-40 1.40211e-39 7.34875e-39 3.69983e-38 1.78997e-37 8.32439e-37 3.72248e-36 1.60107e-35 6.62512e-35 2.63807e-34 1.01107e-33 3.73045e-33 1.32527e-32 4.53396e-32 1.49398e-31 4.74204e-31 1.45007e-30 4.27234e-30 1.21294e-29 3.31857e-29 8.75068e-29 2.22408e-28 5.44895e-28 1.28697e-27 2.93064e-27 6.43476e-27 1.36248e-26 2.78231e-26 5.48055e-26 1.04148e-25 1.90973e-25 3.37968e-25 5.774e-25 9.52582e-25 1.51811e-24 2.33808e-24 3.48158e-24 5.0153e-24 6.99366e-24 9.44777e-24 1.23752e-23 1.57333e-23 1.94372e-23 2.33655e-23 2.73716e-23 3.12999e-23 3.50038e-23 3.83618e-23 4.12893e-23 4.37434e-23 4.57218e-23 4.72555e-23 4.8399e-23 4.9219e-23 4.97845e-23 5.01597e-23 5.03991e-23 5.05461e-23 5.06329e-23 5.06823e-23 5.07092e-23 5.07234e-23 5.07306e-23 5.07341e-23 5.07358e-23 5.07365e-23 5.07368e-23 5.0737e-23 5.0737e-23 5.07371e-23 5.07371e-23 5.07371e-23 5.07371e-23 5.07371e-23 5.07371e-23 5.07371e-23 5.07371e-23 5.07371e-23 5.07371e-23 5.07371e-23 5.07371e-23 5.07371e-23 5.07371e-23 5.07371e-23 5.07371e-23 5.07371e-23 5.07371e-23 5.07371e-23 5.07371e-23 5.07371e-23 5.07371e-23 5.07371e-23 5.07371e-23 5.07371e-23 5.07371e-23 5.07371e-23 5.07371e-23 5.07371e-23 5.07371e-23 5.07371e-23 5.07371e-23 5.07371e-23 5.07371e-23 5.07371e-23 5.07371e-23 5.07371e-23 5.07371e-23 5.07371e-23 5.07371e-23 5.07371e-23 5.07371e-23 5.07371e-23 5.07371e-23 5.07371e-23 5.07371e-23 5.07371e-23 5.07371e-23 5.07371e-23 5.07371e-23 5.07371e-23 5.07371e-23 5.07371e-23 5.07371e-23 5.07371e-23 5.07371e-23 5.07371e-23 5.07371e-23 5.07371e-23 5.07371e-23 5.07371e-23 5.07371e-23 5.07371e-23 5.07371e-23 5.07371e-23 5.07371e-23 5.07371e-23 5.07371e-23 5.07371e-23 5.07371e-23 5.07371e-23 5.07371e-23 5.07371e-23 5.07371e-23 5.07371e-23 5.07371e-23 5.07371e-23 5.07371e-23 5.0737e-23 5.0737e-23 5.07368e-23 5.07365e-23 5.07358e-23 5.07341e-23 5.07306e-23 5.07234e-23 5.07092e-23 5.06823e-23 5.06329e-23 5.05461e-23 5.03991e-23 5.01597e-23 4.97845e-23 4.9219e-23 4.8399e-23 4.72555e-23 4.57218e-23 4.37434e-23 4.12893e-23 3.83618e-23 3.50038e-23 3.12999e-23 2.73716e-23 2.33655e-23 1.94372e-23 1.57333e-23 1.23752e-23 9.44777e-24 6.99366e-24 5.0153e-24 3.48158e-24 2.33808e-24 1.51811e-24 9.52582e-25 5.774e-25 3.37968e-25 1.90973e-25 1.04148e-25 5.48055e-26 2.78231e-26 1.36248e-26 6.43476e-27 2.93064e-27 1.28697e-27 5.44895e-28 2.22408e-28 8.75068e-29 3.31857e-29 1.21294e-29 4.27234e-30 1.45007e-30 4.74204e-31 1.49398e-31 4.53396e-32 1.32527e-32 3.73045e-33 1.01107e-33 2.63807e-34 6.62512e-35 1.60107e-35 3.72248e-36 8.32439e-37 1.78997e-37 3.69983e-38 7.34875e-39 1.40211e-39 2.56871e-40 4.51667e-41 7.61746e-42 1.23034e-42 1.89175e-43 2.8026e-44 2.8026e-45 0 0 0 0 0 0 0 0 0 0 0 0 0 0 
0 0 0 0 0 0 0 0 0 0 0 0 0 4.2039e-45 3.36312e-44 2.29813e-43 1.52461e-42 9.61711e-42 5.81609e-41 3.37469e-40 1.87986e-39 1.00579e-38 5.17079e-38 2.55524e-37 1.21418e-36 5.54934e-36 2.44025e-35 1.0327e-34 4.20692e-34 1.65005e-33 6.23251e-33 2.26744e-32 7.9467e-32 2.68338e-31 8.73129e-31 2.73798e-30 8.27531e-30 2.41095e-29 6.77142e-29 1.83358e-28 4.78726e-28 1.20525e-27 2.92619e-27 6.85178e-27 1.54746e-26 3.37126e-26 7.08545e-26 1.43681e-25 2.81154e-25 5.30976e-25 9.67986e-25 1.70381e-24 2.89626e-24 4.75608e-24 7.54753e-24 1.15792e-23 1.71823e-23 2.46744e-23 3.4313e-23 4.62427e-23 6.04472e-23 7.67176e-23 9.46455e-23 1.13648e-22 1.33023e-22 1.52026e-22 1.69953e-22 1.86224e-22 2.00428e-22 2.12358e-22 2.21997e-22 2.29489e-22 2.35092e-22 2.39123e-22 2.41915e-22 2.43775e-22 2.44967e-22 2.45703e-22 2.4614e-22 2.4639e-22 2.46527e-22 2.466e-22 2.46637e-22 2.46656e-22 2.46664e-22 2.46668e-22 2.4667e-22 2.4667e-22 2.46671e-22 2.46671e-22 2.46671e-22 2.46671e-22 2.46671e-22 2.46671e-22 2.46671e-22 2.46671e-22 2.46671e-22 2.46671e-22 2.46671e-22 2.46671e-22 2.46671e-22 2.46671e-22 2.46671e-22 2.46671e-22 2.46671e-22 2.46671e-22 2.46671e-22 2.46671e-22 2.46671e-22 2.46671e-22 2.46671e-22 2.46671e-22 2.46671e-22 2.46671e-22 2.46671e-22 2.46671e-22 2.46671e-22 2.46671e-22 2.46671e-22 2.46671e-22 2.46671e-22 2.46671e-22 2.46671e-22 2.46671e-22 2.46671e-22 2.46671e-22 2.46671e-22 2.46671e-22 2.46671e-22 2.46671e-22 2.46671e-22 2.46671e-22 2.46671e-22 2.46671e-22 2.46671e-22 2.46671e-22 2.46671e-22 2.46671e-22 2.46671e-22 2.46671e-22 2.46671e-22 2.46671e-22 2.46671e-22 2.46671e-22 2.46671e-22 2.46671e-22 2.46671e-22 2.46671e-22 2.46671e-22 2.46671e-22 2.46671e-22 2.46671e-22 2.46671e-22 2.46671e-22 2.46671e-22 2.46671e-22 2.46671e-22 2.46671e-22 2.46671e-22 2.46671e-22 2.46671e-22 2.46671e-22 2.46671e-22 2.46671e-22 2.46671e-22 2.46671e-22 2.46671e-22 2.46671e-22 2.4667e-22 2.4667e-22 2.46668e-22 2.46664e-22 2.46656e-22 2.46637e-22 2.466e-22 2.46527e-22 2.4639e-22 2.4614e-22 2.45703e-22 2.44967e-22 2.43775e-22 2.41915e-22 2.39123e-22 2.35092e-22 2.29489e-22 2.21997e-22 2.12358e-22 2.00428e-22 1.86224e-22 1.69953e-22 1.52026e-22 1.33023e-22 1.13648e-22 9.46455e-23 7.67176e-23 6.04472e-23 4.62427e-23 3.4313e-23 2.46744e-23 1.71823e-23 1.15792e-23 7.54753e-24 4.75608e-24 2.89626e-24 1.70381e-24 9.67986e-25 5.30976e-25 2.81154e-25 1.43681e-25 7.08545e-26 3.37126e-26 1.54746e-26 6.85178e-27 2.92619e-27 1.20525e-27 4.78726e-28 1.83358e-28 6.77142e-29 2.41095e-29 8.27531e-30 2.73798e-30 8.73129e-31 2.68338e-31 7.9467e-32 2.26744e-32 6.23251e-33 1.65005e-33 4.20692e-34 1.0327e-34 2.44025e-35 5.54934e-36 1.21418e-36 2.55524e-37 5.17079e-38 1.00579e-38 1.87986e-39 3.37469e-40 5.81609e-41 9.61711e-42 1.52461e-42 2.29813e-43 3.36312e-44 4.2039e-45 0 0 0 0 0 0 0 0 0 0 0 0 0 
0 0 0 0 0 0 0 0 0 0 0 0 4.2039e-45 3.92364e-44 2.70451e-43 1.82169e-42 1.17121e-41 7.22201e-41 4.27379e-40 2.42879e-39 1.32611e-38 6.95922e-38 3.51153e-37 1.70426e-36 7.95824e-36 3.57655e-35 1.54737e-34 6.44631e-34 2.5865e-33 9.99731e-33 3.7231e-32 1.33613e-31 4.62149e-31 1.54086e-30 4.95274e-30 1.5349e-29 4.5868e-29 1.32183e-28 3.67384e-28 9.84863e-28 2.54671e-27 6.35276e-27 1.52884e-26 3.54987e-26 7.95337e-26 1.71957e-25 3.58808e-25 7.22656e-25 1.40503e-24 2.63749e-24 4.78112e-24 8.37126e-24 1.41607e-23 2.31493e-23 3.65844e-23 5.59161e-23 8.26918e-23 1.18389e-22 1.64195e-22 2.20764e-22 2.88001e-22 3.6491e-22 4.4957e-22 5.39251e-22 6.30671e-22 7.20351e-22 8.05011e-22 8.8192e-22 9.49157e-22 1.00573e-21 1.05153e-21 1.08723e-21 1.11401e-21 1.13334e-21 1.14677e-21 1.15576e-21 1.16155e-21 1.16514e-21 1.16728e-21 1.16852e-21 1.1692e-21 1.16956e-21 1.16975e-21 1.16984e-21 1.16989e-21 1.16991e-21 1.16991e-21 1.16992e-21 1.16992e-21 1.16992e-21 1.16992e-21 1.16992e-21 1.16992e-21 1.16992e-21 1.16992e-21 1.16992e-21 1.16992e-21 1.16992e-21 1.16992e-21 1.16992e-21 1.16992e-21 1.16992e-21 1.16992e-21 1.16992e-21 1.16992e-21 1.16992e-21 1.16992e-21 1.16992e-21 1.16992e-21 1.16992e-21 1.16992e-21 1.16992e-21 1.16992e-21 1.16992e-21 1.16992e-21 1.16992e-21 1.16992e-21 1.16992e-21 1.16992e-21 1.16992e-21 1.16992e-21 1.16992e-21 1.16992e-21 1.16992e-21 1.16992e-21 1.16992e-21 1.16992e-21 1.16992e-21 1.16992e-21 1.16992e-21 1.16992e-21 1.16992e-21 1.16992e-21 1.16992e-21 1.16992e-21 1.16992e-21 1.16992e-21 1.16992e-21 1.16992e-21 1.16992e-21 1.16992e-21 1.16992e-21 1.16992e-21 1.16992e-21 1.16992e-21 1.16992e-21 1.16992e-21 1.16992e-21 1.16992e-21 1.16992e-21 1.16992e-21 1.16992e-21 1.16992e-21 1.16992e-21 1.16992e-21 1.16992e-21 1.16992e-21 1.16992e-21 1.16992e-21 1.16992e-21 1.16992e-21 1.16992e-21 1.16992e-21 1.16992e-21 1.16992e-21 1.16992e-21 1.16992e-21 1.16992e-21 1.16992e-21 1.16991e-21 1.16991e-21 1.16989e-21 1.16984e-21 1.16975e-21 1.16956e-21 1.1692e-21 1.16852e-21 1.16728e-21 1.16514e-21 1.16155e-21 1.15576e-21 1.14677e-21 1.13334e-21 1.11401e-21 1.08723e-21 1.05153e-21 1.00573e-21 9.49157e-22 8.8192e-22 8.05011e-22 7.20351e-22 6.30671e-22 5.39251e-22 4.4957e-22 3.6491e-22 2.88001e-22 2.20764e-22 1.64195e-22 1.18389e-22 8.26918e-23 5.59161e-23 3.65844e-23 2.31493e-23 1.41607e-23 8.37126e-24 4.78112e-24 2.63749e-24 1.40503e-24 7.22656e-25 3.58808e-25 1.71957e-25 7.95337e-26 3.54987e-26 1.52884e-26 6.35276e-27 2.54671e-27 9.84863e-28 3.67384e-28 1.32183e-28 4.5868e-29 1.5349e-29 4.95274e-30 1.54086e-30 4.62149e-31 1.33613e-31 3.7231e-32 9.99731e-33 2.5865e-33 6.44631e-34 1.54737e-34 3.57655e-35 7.95824e-36 1.70426e-36 3.51153e-37 6.95922e-38 1.32611e-38 2.42879e-39 4.27379e-40 7.22201e-41 1.17121e-41 1.82169e-42 2.70451e-43 3.92364e-44 4.2039e-45 0 0 0 0 0 0 0 0 0 0 0 0 
0 0 0 0 0 0 0 0 0 0 0 4.2039e-45 4.2039e-44 3.06884e-43 2.10055e-42 1.37622e-41 8.64811e-41 5.21807e-40 3.02438e-39 1.6846e-38 9.02134e-38 4.64648e-37 2.30253e-36 1.09814e-35 5.04201e-35 2.22928e-34 9.49394e-34 3.89535e-33 1.54012e-32 5.86883e-32 2.15581e-31 7.63484e-31 2.60723e-30 8.58628e-30 2.72726e-29 8.35579e-29 2.46963e-28 7.04203e-28 1.9374e-27 5.14319e-27 1.31755e-26 3.25731e-26 7.77208e-26 1.78993e-25 3.97919e-25 8.53983e-25 1.76948e-24 3.54025e-24 6.84025e-24 1.27652e-23 2.30131e-23 4.00875e-23 6.74896e-23 1.09846e-22 1.729e-22 2.63296e-22 3.88092e-22 5.53988e-22 7.66329e-22 1.02801e-21 1.3385e-21 1.69317e-21 2.08321e-21 2.49614e-21 2.917e-21 3.32993e-21 3.71997e-21 4.07464e-21 4.38513e-21 4.64681e-21 4.85915e-21 5.02505e-21 5.14985e-21 5.24024e-21 5.3033e-21 5.34565e-21 5.37306e-21 5.39013e-21 5.40038e-21 5.4063e-21 5.4096e-21 5.41137e-21 5.41229e-21 5.41274e-21 5.41296e-21 5.41306e-21 5.41311e-21 5.41313e-21 5.41314e-21 5.41314e-21 5.41314e-21 5.41314e-21 5.41314e-21 5.41314e-21 5.41314e-21 5.41314e-21 5.41314e-21 5.41314e-21 5.41314e-21 5.41314e-21 5.41314e-21 5.41314e-21 5.41314e-21 5.41314e-21 5.41314e-21 5.41314e-21 5.41314e-21 5.41314e-21 5.41314e-21 5.41314e-21 5.41314e-21 5.41314e-21 5.41314e-21 5.41314e-21 5.41314e-21 5.41314e-21 5.41314e-21 5.41314e-21 5.41314e-21 5.41314e-21 5.41314e-21 5.41314e-21 5.41314e-21 5.41314e-21 5.41314e-21 5.41314e-21 5.41314e-21 5.41314e-21 5.41314e-21 5.41314e-21 5.41314e-21 5.41314e-21 5.41314e-21 5.41314e-21 5.41314e-21 5.41314e-21 5.41314e-21 5.41314e-21 5.41314e-21 5.41314e-21 5.41314e-21 5.41314e-21 5.41314e-21 5.41314e-21 5.41314e-21 5.41314e-21 5.41314e-21 5.41314e-21 5.41314e-21 5.41314e-21 5.41314e-21 5.41314e-21 5.41314e-21 5.41314e-21 5.41314e-21 5.41314e-21 5.41314e-21 5.41314e-21 5.41314e-21 5.41314e-21 5.41314e-21 5.41314e-21 5.41314e-21 5.41314e-21 5.41314e-21 5.41314e-21 5.41314e-21 5.41314e-21 5.41313e-21 5.41311e-21 5.41306e-21 5.41296e-21 5.41274e-21 5.41229e-21 5.41137e-21 5.4096e-21 5.4063e-21 5.40038e-21 5.39013e-21 5.37306e-21 5.34565e-21 5.3033e-21 5.24024e-21 5.14985e-21 5.02505e-21 4.85915e-21 4.64681e-21 4.38513e-21 4.07464e-21 3.71997e-21 3.32993e-21 2.917e-21 2.49614e-21 2.08321e-21 1.69317e-21 1.3385e-21 1.02801e-21 7.66329e-22 5.53988e-22 3.88092e-22 2.63296e-22 1.729e-22 1.09846e-22 6.74896e-23 4.00875e-23 2.30131e-23 1.27652e-23 6.84025e-24 3.54025e-24 1.76948e-24 8.53983e-25 3.97919e-25 1.78993e-25 7.77208e-26 3.25731e-26 1.31755e-26 5.14319e-27 1.9374e-27 7.04203e-28 2.46963e-28 8.35579e-29 2.72726e-29 8.58628e-30 2.60723e-30 7.63484e-31 2.15581e-31 5.86883e-32 1.54012e-32 3.89535e-33 9.49394e-34 2.22928e-34 5.04201e-35 1.09814e-35 2.30253e-36 4.64648e-37 9.02134e-38 1.6846e-38 3.02438e-39 5.21807e-40 8.64811e-41 1.37622e-41 2.10055e-42 3.06884e-43 4.2039e-44 4.2039e-45 0 0 0 0 0 0 0 0 0 0 0 
0 0 0 0 0 0 0 0 0 0 4.2039e-45 4.48416e-44 3.3491e-43 2.33737e-42 1.55965e-41 9.98804e-41 6.14293e-40 3.63014e-39 2.06217e-38 1.12657e-37 5.92089e-37 2.99481e-36 1.4583e-35 6.83823e-35 3.08876e-34 1.34423e-33 5.63786e-33 2.27927e-32 8.88382e-32 3.3389e-31 1.21025e-30 4.23132e-30 1.42713e-29 4.64393e-29 1.45811e-28 4.41796e-28 1.29186e-27 3.64593e-27 9.93191e-27 2.61168e-26 6.62982e-26 1.62483e-25 3.84474e-25 8.78444e-25 1.93813e-24 4.12965e-24 8.49858e-24 1.6894e-23 3.24435e-23 6.02005e-23 1.0795e-22 1.87108e-22 3.13552e-22 5.08161e-22 7.96733e-22 1.20897e-21 1.77627e-21 2.52828e-21 3.48848e-21 4.66937e-21 6.06814e-21 7.66385e-21 9.41703e-21 1.12721e-20 1.31624e-20 1.50174e-20 1.67706e-20 1.83663e-20 1.97651e-20 2.0946e-20 2.19062e-20 2.26582e-20 2.32255e-20 2.36377e-20 2.39263e-20 2.41209e-20 2.42473e-20 2.43265e-20 2.43742e-20 2.4402e-20 2.44175e-20 2.44259e-20 2.44303e-20 2.44325e-20 2.44336e-20 2.44341e-20 2.44343e-20 2.44344e-20 2.44344e-20 2.44344e-20 2.44344e-20 2.44344e-20 2.44344e-20 2.44344e-20 2.44344e-20 2.44344e-20 2.44344e-20 2.44344e-20 2.44344e-20 2.44344e-20 2.44344e-20 2.44344e-20 2.44344e-20 2.44344e-20 2.44344e-20 2.44344e-20 2.44344e-20 2.44344e-20 2.44344e-20 2.44344e-20 2.44344e-20 2.44344e-20 2.44344e-20 2.44344e-20 2.44344e-20 2.44344e-20 2.44344e-20 2.44344e-20 2.44344e-20 2.44344e-20 2.44344e-20 2.44344e-20 2.44344e-20 2.44344e-20 2.44344e-20 2.44344e-20 2.44344e-20 2.44344e-20 2.44344e-20 2.44344e-20 2.44344e-20 2.44344e-20 2.44344e-20 2.44344e-20 2.44344e-20 2.44344e-20 2.44344e-20 2.44344e-20 2.44344e-20 2.44344e-20 2.44344e-20 2.44344e-20 2.44344e-20 2.44344e-20 2.44344e-20 2.44344e-20 2.44344e-20 2.44344e-20 2.44344e-20 2.44344e-20 2.44344e-20 2.44344e-20 2.44344e-20 2.44344e-20 2.44344e-20 2.44344e-20 2.44344e-20 2.44344e-20 2.44344e-20 2.44344e-20 2.44344e-20 2.44344e-20 2.44344e-20 2.44344e-20 2.44344e-20 2.44344e-20 2.44344e-20 2.44344e-20 2.44344e-20 2.44343e-20 2.44341e-20 2.44336e-20 2.44325e-20 2.44303e-20 2.44259e-20 2.44175e-20 2.4402e-20 2.43742e-20 2.43265e-20 2.42473e-20 2.41209e-20 2.39263e-20 2.36377e-20 2.32255e-20 2.26582e-20 2.19062e-20 2.0946e-20 1.97651e-20 1.83663e-20 1.67706e-20 1.50174e-20 1.31624e-20 1.12721e-20 9.41703e-21 7.66385e-21 6.06814e-21 4.66937e-21 3.48848e-21 2.52828e-21 1.77627e-21 1.20897e-21 7.96733e-22 5.08161e-22 3.13552e-22 1.87108e-22 1.0795e-22 6.02005e-23 3.24435e-23 1.6894e-23 8.49858e-24 4.12965e-24 1.93813e-24 8.78444e-25 3.84474e-25 1.62483e-25 6.62982e-26 2.61168e-26 9.93191e-27 3.64593e-27 1.29186e-27 4.41796e-28 1.45811e-28 4.64393e-29 1.42713e-29 4.23132e-30 1.21025e-30 3.3389e-31 8.88382e-32 2.27927e-32 5.63786e-33 1.34423e-33 3.08876e-34 6.83823e-35 1.4583e-35 2.99481e-36 5.92089e-37 1.12657e-37 2.06217e-38 3.63014e-39 6.14293e-40 9.98804e-41 1.55965e-41 2.33737e-42 3.3491e-43 4.48416e-44 4.2039e-45 0 0 0 0 0 0 0 0 0 0 
0 0 0 0 0 0 0 0 0 4.2039e-45 4.62428e-44 3.53127e-43 2.50832e-42 1.70524e-41 1.11266e-40 6.97346e-40 4.20047e-39 2.43283e-38 1.35542e-37 7.26692e-37 3.75058e-36 1.86406e-35 8.92414e-35 4.1166e-34 1.83016e-33 7.84359e-33 3.24125e-32 1.29171e-31 4.96535e-31 1.84135e-30 6.5885e-30 2.27489e-29 7.58067e-29 2.43824e-28 7.57024e-28 2.26905e-27 6.56627e-27 1.83469e-26 4.95005e-26 1.28969e-25 3.24506e-25 7.88582e-25 1.85092e-24 4.1964e-24 9.19069e-24 1.94464e-23 3.97548e-23 7.85326e-23 1.49926e-22 2.76651e-22 4.9351e-22 8.51248e-22 1.4201e-21 2.29195e-21 3.57982e-21 5.41324e-21 7.92849e-21 1.12536e-20 1.54892e-20 2.06878e-20 2.68355e-20 3.38398e-20 4.15283e-20 4.9659e-20 5.79428e-20 6.60735e-20 7.37619e-20 8.07662e-20 8.69139e-20 9.21126e-20 9.63482e-20 9.96733e-20 1.02189e-19 1.04022e-19 1.0531e-19 1.06182e-19 1.06751e-19 1.07108e-19 1.07325e-19 1.07452e-19 1.07523e-19 1.07562e-19 1.07582e-19 1.07593e-19 1.07598e-19 1.076e-19 1.07601e-19 1.07601e-19 1.07602e-19 1.07602e-19 1.07602e-19 1.07602e-19 1.07602e-19 1.07602e-19 1.07602e-19 1.07602e-19 1.07602e-19 1.07602e-19 1.07602e-19 1.07602e-19 1.07602e-19 1.07602e-19 1.07602e-19 1.07602e-19 1.07602e-19 1.07602e-19 1.07602e-19 1.07602e-19 1.07602e-19 1.07602e-19 1.07602e-19 1.07602e-19 1.07602e-19 1.07602e-19 1.07602e-19 1.07602e-19 1.07602e-19 1.07602e-19 1.07602e-19 1.07602e-19 1.07602e-19 1.07602e-19 1.07602e-19 1.07602e-19 1.07602e-19 1.07602e-19 1.07602e-19 1.07602e-19 1.07602e-19 1.07602e-19 1.07602e-19 1.07602e-19 1.07602e-19 1.07602e-19 1.07602e-19 1.07602e-19 1.07602e-19 1.07602e-19 1.07602e-19 1.07602e-19 1.07602e-19 1.07602e-19 1.07602e-19 1.07602e-19 1.07602e-19 1.07602e-19 1.07602e-19 1.07602e-19 1.07602e-19 1.07602e-19 1.07602e-19 1.07602e-19 1.07602e-19 1.07602e-19 1.07602e-19 1.07602e-19 1.07602e-19 1.07602e-19 1.07602e-19 1.07602e-19 1.07602e-19 1.07602e-19 1.07602e-19 1.07602e-19 1.07602e-19 1.07602e-19 1.07602e-19 1.07602e-19 1.07601e-19 1.07601e-19 1.076e-19 1.07598e-19 1.07593e-19 1.07582e-19 1.07562e-19 1.07523e-19 1.07452e-19 1.07325e-19 1.07108e-19 1.06751e-19 1.06182e-19 1.0531e-19 1.04022e-19 1.02189e-19 9.96733e-20 9.63482e-20 9.21126e-20 8.69139e-20 8.07662e-20 7.37619e-20 6.60735e-20 5.79428e-20 4.9659e-20 4.15283e-20 3.38398e-20 2.68355e-20 2.06878e-20 1.54892e-20 1.12536e-20 7.92849e-21 5.41324e-21 3.57982e-21 2.29195e-21 1.4201e-21 8.51248e-22 4.9351e-22 2.76651e-22 1.49926e-22 7.85326e-23 3.97548e-23 1.94464e-23 9.19069e-24 4.1964e-24 1.85092e-24 7.88582e-25 3.24506e-25 1.28969e-25 4.95005e-26 1.83469e-26 6.56627e-27 2.26905e-27 7.57024e-28 2.43824e-28 7.58067e-29 2.27489e-29 6.5885e-30 1.84135e-30 4.96535e-31 1.29171e-31 3.24125e-32 7.84359e-33 1.83016e-33 4.1166e-34 8.92414e-35 1.86406e-35 3.75058e-36 7.26692e-37 1.35542e-37 2.43283e-38 4.20047e-39 6.97346e-40 1.11266e-40 1.70524e-41 2.50832e-42 3.53127e-43 4.62428e-44 4.2039e-45 0 0 0 0 0 0 0 0 0 
0 0 0 0 0 0 0 0 4.2039e-45 4.62428e-44 3.60134e-43 2.60081e-42 1.79927e-41 1.19566e-40 7.63423e-40 4.68594e-39 2.76633e-38 1.57134e-37 8.59145e-37 4.52323e-36 2.29384e-35 1.12083e-34 5.27846e-34 2.39647e-33 1.04915e-32 4.42999e-32 1.80447e-31 7.0918e-31 2.68966e-30 9.84541e-30 3.47878e-29 1.18666e-28 3.90828e-28 1.24292e-27 3.81717e-27 1.13217e-26 3.24335e-26 8.97451e-26 2.3988e-25 6.19401e-25 1.54515e-24 3.72403e-24 8.67227e-24 1.95144e-23 4.24342e-23 8.91763e-23 1.81133e-22 3.55636e-22 6.75044e-22 1.23891e-21 2.19889e-21 3.77496e-21 6.27005e-21 1.00786e-20 1.56837e-20 2.36363e-20 3.45134e-20 4.88546e-20 6.70807e-20 8.94072e-20 1.15767e-19 1.45763e-19 1.78659e-19 2.1343e-19 2.48848e-19 2.83618e-19 3.16514e-19 3.4651e-19 3.7287e-19 3.95196e-19 4.13423e-19 4.27764e-19 4.38641e-19 4.46593e-19 4.52198e-19 4.56007e-19 4.58502e-19 4.60078e-19 4.61038e-19 4.61602e-19 4.61922e-19 4.62096e-19 4.62188e-19 4.62235e-19 4.62258e-19 4.62268e-19 4.62273e-19 4.62276e-19 4.62277e-19 4.62277e-19 4.62277e-19 4.62277e-19 4.62277e-19 4.62277e-19 4.62277e-19 4.62277e-19 4.62277e-19 4.62277e-19 4.62277e-19 4.62277e-19 4.62277e-19 4.62277e-19 4.62277e-19 4.62277e-19 4.62277e-19 4.62277e-19 4.62277e-19 4.62277e-19 4.62277e-19 4.62277e-19 4.62277e-19 4.62277e-19 4.62277e-19 4.62277e-19 4.62277e-19 4.62277e-19 4.62277e-19 4.62277e-19 4.62277e-19 4.62277e-19 4.62277e-19 4.62277e-19 4.62277e-19 4.62277e-19 4.62277e-19 4.62277e-19 4.62277e-19 4.62277e-19 4.62277e-19 4.62277e-19 4.62277e-19 4.62277e-19 4.62277e-19 4.62277e-19 4.62277e-19 4.62277e-19 4.62277e-19 4.62277e-19 4.62277e-19 4.62277e-19 4.62277e-19 4.62277e-19 4.62277e-19 4.62277e-19 4.62277e-19 4.62277e-19 4.62277e-19 4.62277e-19 4.62277e-19 4.62277e-19 4.62277e-19 4.62277e-19 4.62277e-19 4.62277e-19 4.62277e-19 4.62277e-19 4.62277e-19 4.62277e-19 4.62277e-19 4.62277e-19 4.62277e-19 4.62277e-19 4.62277e-19 4.62277e-19 4.62277e-19 4.62277e-19 4.62277e-19 4.62277e-19 4.62276e-19 4.62273e-19 4.62268e-19 4.62258e-19 4.62235e-19 4.62188e-19 4.62096e-19 4.61922e-19 4.61602e-19 4.61038e-19 4.60078e-19 4.58502e-19 4.56007e-19 4.52198e-19 4.46593e-19 4.38641e-19 4.27764e-19 4.13423e-19 3.95196e-19 3.7287e-19 3.4651e-19 3.16514e-19 2.83618e-19 2.48848e-19 2.1343e-19 1.78659e-19 1.45763e-19 1.15767e-19 8.94072e-20 6.70807e-20 4.88546e-20 3.45134e-20 2.36363e-20 1.56837e-20 1.00786e-20 6.27005e-21 3.77496e-21 2.19889e-21 1.23891e-21 6.75044e-22 3.55636e-22 1.81133e-22 8.91763e-23 4.24342e-23 1.95144e-23 8.67227e-24 3.72403e-24 1.54515e-24 6.19401e-25 2.3988e-25 8.97451e-26 3.24335e-26 1.13217e-26 3.81717e-27 1.24292e-27 3.90828e-28 1.18666e-28 3.47878e-29 9.84541e-30 2.68966e-30 7.0918e-31 1.80447e-31 4.42999e-32 1.04915e-32 2.39647e-33 5.27846e-34 1.12083e-34 2.29384e-35 4.52323e-36 8.59145e-37 1.57134e-37 2.76633e-38 4.68594e-39 7.63423e-40 1.19566e-40 1.79927e-41 2.60081e-42 3.60134e-43 4.62428e-44 4.2039e-45 0 0 0 0 0 0 0 0 