<?xml version="1.0"?>
<VTKFile type="ImageData" version="0.1" byte_order="LittleEndian">
  <ImageData WholeExtent="0 255 0 255 0 0" Origin="0 0 0" Spacing="1 1 1">
  <Piece Extent="0 255 0 255 0 0">
    <PointData>
      <DataArray type="Float32" Name="scalar_data" format="ascii" >0 0 0 0 0 0 0 0 0 0 0 0 0 0 0 0 0 0 0 0 0 0 0 0 0 0 0 0 0 0 0 0 0 0 0 0 0 0 0 0 0 0 0 0 0 0 0 0 0 0 0 0 0 0 0 0 0 0 0 0 0 0 0 0 0 0 0 0 0 0 0 0 0 0 0 0 0 0 0 0 0 0 0 0 0 0 0 0 0 0 0 0 0 0 0 0 0 0 0 0 0 0 0 0 0 0 0 0 0 0 0 0 0 0 0 0 0 0 0 0 0 0 0 0 0 0 0 0 0 0 0 0 0 0 0 0 0 0 0 0 0 0 0 0 0 0 0 0 0 0 0 0 0 0 0 0 0 0 0 0 0 0 0 0 0 0 0 0 0 0 0 0 0 0 0 0 0 0 0 0 0 0 0 0 0 0 0 0 0 0 0 0 0 0 0 0 0 0 0 0 0 0 0 0 0 0 0 0 0 0 0 0 0 0 0 0 0 0 0 0 0 0 0 0 0 0 0 0 0 0 0 0 0 0 0 0 0 0 0 0 0 0 0 0 0 0 0 0 0 0 0 0 0 0 0 0 
0 2.01985e-28 6.02959e-28 1.58336e-27 4.03843e-27 1.01308e-26 2.50397e-26 6.09908e-26 1.46408e-25 3.4636e-25 8.07519e-25 1.85539e-24 4.20122e-24 9.37494e-24 2.06164e-23 4.46792e-23 9.54214e-23 2.00831e-22 4.16542e-22 8.51392e-22 1.71491e-21 3.40402e-21 6.65861e-21 1.28356e-20 2.4383e-20 4.56457e-20 8.42086e-20 1.53094e-19 2.74289e-19 4.84296e-19 8.42694e-19 1.44508e-18 2.44219e-18 4.06766e-18 6.67718e-18 1.08028e-17 1.7226e-17 2.70739e-17 4.1942e-17 6.40465e-17 9.64069e-17 1.43057e-16 2.09274e-16 3.01827e-16 4.29201e-16 6.01805e-16 8.32102e-16 1.13465e-15 1.52598e-15 2.02436e-15 2.64928e-15 3.42076e-15 4.35847e-15 5.48061e-15 6.80269e-15 8.33624e-15 1.00875e-14 1.20565e-14 1.4236e-14 1.66111e-14 1.91592e-14 2.18506e-14 2.46492e-14 2.75142e-14 3.04017e-14 3.32667e-14 3.60654e-14 3.87568e-14 4.13049e-14 4.368e-14 4.58594e-14 4.78284e-14 4.95797e-14 5.11133e-14 5.24354e-14 5.35575e-14 5.44952e-14 5.52667e-14 5.58916e-14 5.639e-14 5.67813e-14 5.70839e-14 5.73142e-14 5.74868e-14 5.76142e-14 5.77067e-14 5.77729e-14 5.78196e-14 5.78519e-14 5.7874e-14 5.78889e-14 5.78987e-14 5.79052e-14 5.79093e-14 5.79119e-14 5.79135e-14 5.79145e-14 5.79151e-14 5.79155e-14 5.79157e-14 5.79158e-14 5.79159e-14 5.79159e-14 5.7916e-14 5.7916e-14 5.7916e-14 5.7916e-14 5.7916e-14 5.7916e-14 5.7916e-14 5.7916e-14 5.7916e-14 5.7916e-14 5.7916e-14 5.7916e-14 5.7916e-14 5.7916e-14 5.7916e-14 5.7916e-14 5.7916e-14 5.7916e-14 5.7916e-14 5.7916e-14 5.7916e-14 5.7916e-14 5.7916e-14 5.7916e-14 5.7916e-14 5.7916e-14 5.7916e-14 5.7916e-14 5.7916e-14 5.7916e-14 5.7916e-14 5.7916e-14 5.7916e-14 5.7916e-14 5.7916e-14 5.7916e-14 5.7916e-14 5.7916e-14 5.7916e-14 5.7916e-14 5.7916e-14 5.7916e-14 5.7916e-14 5.7916e-14 5.7916e-14 5.7916e-14 5.7916e-14 5.7916e-14 5.7916e-14 5.7916e-14 5.79159e-14 5.79159e-14 5.79158e-14 5.79157e-14 5.79155e-14 5.79151e-14 5.79145e-14 5.79135e-14 5.79119e-14 5.79093e-14 5.79052e-14 5.78987e-14 5.78889e-14 5.7874e-14 5.78519e-14 5.78196e-14 5.77729e-14 5.77067e-14 5.76142e-14 5.74868e-14 5.73142e-14 5.70839e-14 5.67813e-14 5.639e-14 5.58916e-14 5.52667e-14 5.44952e-14 5.35575e-14 5.24354e-14 5.11133e-14 4.95797e-14 4.78284e-14 4.58594e-14 4.368e-14 4.13049e-14 3.87568e-14 3.60654e-14 3.32667e-14 3.04017e-14 2.75142e-14 2.46492e-14 2.18506e-14 1.91592e-14 1.66111e-14 1.4236e-14 1.20565e-14 1.00875e-14 8.33624e-15 6.80269e-15 5.48061e-15 4.35847e-15 3.42076e-15 2.64928e-15 2.02436e-15 1.52598e-15 1.13465e-15 8.32102e-16 6.01805e-16 4.29201e-16 3.01827e-16 2.09274e-16 1.43057e-16 9.64069e-17 6.40465e-17 4.1942e-17 2.70739e-17 1.7226e-17 1.08028e-17 6.67718e-18 4.06766e-18 2.44219e-18 1.44508e-18 8.42694e-19 4.84296e-19 2.74289e-19 1.53094e-19 8.42086e-20 4.56457e-20 2.4383e-20 1.28356e-20 6.65861e-21 3.40402e-21 1.71491e-21 8.51392e-22 4.16542e-22 2.00831e-22 9.54214e-23 4.46792e-23 2.06164e-23 9.37494e-24 4.20122e-24 1.85539e-24 8.07519e-25 3.4636e-25 1.46408e-25 6.09908e-26 2.50397e-26 1.01308e-26 4.03843e-27 1.58336e-27 6.02959e-28 2.01985e-28 0 
0 6.02959e-28 1.79704e-27 4.7097e-27 1.19878e-26 3.00119e-26 7.40308e-26 1.7997e-25 4.31191e-25 1.01817e-24 2.36945e-24 5.43438e-24 1.22836e-23 2.73634e-23 6.00735e-23 1.29975e-22 2.77141e-22 5.82374e-22 1.20604e-21 2.46139e-21 4.95056e-21 9.8126e-21 1.91677e-20 3.68986e-20 7.00012e-20 1.30875e-19 2.4114e-19 4.37864e-19 7.83563e-19 1.3819e-18 2.40186e-18 4.1143e-18 6.94589e-18 1.15571e-17 1.89527e-17 3.06337e-17 4.88032e-17 7.66353e-17 1.1862e-16 1.80986e-16 2.72217e-16 4.03633e-16 5.90037e-16 8.50394e-16 1.20847e-15 1.69339e-15 2.34001e-15 3.18901e-15 4.28659e-15 5.6837e-15 7.4347e-15 9.59545e-15 1.22207e-14 1.53611e-14 1.90599e-14 2.33489e-14 2.82456e-14 3.37498e-14 3.9841e-14 4.64777e-14 5.35969e-14 6.11155e-14 6.8933e-14 7.69356e-14 8.50009e-14 9.30035e-14 1.00821e-13 1.0834e-13 1.15459e-13 1.22096e-13 1.28187e-13 1.33691e-13 1.38588e-13 1.42877e-13 1.46575e-13 1.49716e-13 1.52341e-13 1.54502e-13 1.56253e-13 1.5765e-13 1.58748e-13 1.59597e-13 1.60243e-13 1.60728e-13 1.61086e-13 1.61346e-13 1.61533e-13 1.61664e-13 1.61756e-13 1.61818e-13 1.6186e-13 1.61888e-13 1.61906e-13 1.61918e-13 1.61925e-13 1.6193e-13 1.61932e-13 1.61934e-13 1.61935e-13 1.61936e-13 1.61936e-13 1.61936e-13 1.61936e-13 1.61936e-13 1.61936e-13 1.61937e-13 1.61937e-13 1.61937e-13 1.61937e-13 1.61937e-13 1.61937e-13 1.61937e-13 1.61937e-13 1.61937e-13 1.61937e-13 1.61937e-13 1.61937e-13 1.61937e-13 1.61937e-13 1.61937e-13 1.61937e-13 1.61937e-13 1.61937e-13 1.61937e-13 1.61937e-13 1.61937e-13 1.61937e-13 1.61937e-13 1.61937e-13 1.61937e-13 1.61937e-13 1.61937e-13 1.61937e-13 1.61937e-13 1.61937e-13 1.61937e-13 1.61937e-13 1.61937e-13 1.61937e-13 1.61937e-13 1.61937e-13 1.61937e-13 1.61937e-13 1.61937e-13 1.61937e-13 1.61937e-13 1.61937e-13 1.61937e-13 1.61937e-13 1.61937e-13 1.61937e-13 1.61936e-13 1.61936e-13 1.61936e-13 1.61936e-13 1.61936e-13 1.61936e-13 1.61935e-13 1.61934e-13 1.61932e-13 1.6193e-13 1.61925e-13 1.61918e-13 1.61906e-13 1.61888e-13 1.6186e-13 1.61818e-13 1.61756e-13 1.61664e-13 1.61533e-13 1.61346e-13 1.61086e-13 1.60728e-13 1.60243e-13 1.59597e-13 1.58748e-13 1.5765e-13 1.56253e-13 1.54502e-13 1.52341e-13 1.49716e-13 1.46575e-13 1.42877e-13 1.38588e-13 1.33691e-13 1.28187e-13 1.22096e-13 1.15459e-13 1.0834e-13 1.00821e-13 9.30035e-14 8.50009e-14 7.69356e-14 6.8933e-14 6.11155e-14 5.35969e-14 4.64777e-14 3.9841e-14 3.37498e-14 2.82456e-14 2.33489e-14 1.90599e-14 1.53611e-14 1.22207e-14 9.59545e-15 7.4347e-15 5.6837e-15 4.28659e-15 3.18901e-15 2.34001e-15 1.69339e-15 1.20847e-15 8.50394e-16 5.90037e-16 4.03633e-16 2.72217e-16 1.80986e-16 1.1862e-16 7.66353e-17 4.88032e-17 3.06337e-17 1.89527e-17 1.15571e-17 6.94589e-18 4.1143e-18 2.40186e-18 1.3819e-18 7.83563e-19 4.37864e-19 2.4114e-19 1.30875e-19 7.00012e-20 3.68986e-20 1.91677e-20 9.8126e-21 4.95056e-21 2.46139e-21 1.20604e-21 5.82374e-22 2.77141e-22 1.29975e-22 6.00735e-23 2.73634e-23 1.22836e-23 5.43438e-24 2.36945e-24 1.01817e-24 4.31191e-25 1.7997e-25 7.40308e-26 3.00119e-26 1.19878e-26 4.7097e-27 1.79704e-27 6.02959e-28 0 
0 1.58336e-27 4.7097e-27 1.23134e-26 3.12634e-26 7.80744e-26 1.92116e-25 4.65917e-25 1.11366e-24 2.62361e-24 6.09174e-24 1.39405e-23 3.14419e-23 6.9892e-23 1.5312e-22 3.30615e-22 7.03548e-22 1.47552e-21 3.04982e-21 6.2127e-21 1.24727e-20 2.46783e-20 4.81222e-20 9.248e-20 1.75156e-19 3.26946e-19 6.01457e-19 1.09046e-18 1.9485e-18 3.43141e-18 5.95573e-18 1.01881e-17 1.71771e-17 2.85441e-17 4.67519e-17 7.54758e-17 1.20103e-16 1.88387e-16 2.9128e-16 4.43967e-16 6.67096e-16 9.88199e-16 1.44325e-15 2.07827e-15 2.9509e-15 4.13172e-15 5.7051e-15 7.76944e-15 1.04364e-14 1.38291e-14 1.80786e-14 2.33196e-14 2.96841e-14 3.72941e-14 4.6253e-14 5.66378e-14 6.84898e-14 8.18079e-14 9.65427e-14 1.12593e-13 1.29808e-13 1.47985e-13 1.66884e-13 1.86229e-13 2.05724e-13 2.25069e-13 2.43968e-13 2.62145e-13 2.7936e-13 2.9541e-13 3.10145e-13 3.23463e-13 3.35315e-13 3.457e-13 3.54659e-13 3.62269e-13 3.68633e-13 3.73874e-13 3.78124e-13 3.81517e-13 3.84184e-13 3.86248e-13 3.87821e-13 3.89002e-13 3.89875e-13 3.9051e-13 3.90965e-13 3.91286e-13 3.91509e-13 3.91662e-13 3.91765e-13 3.91833e-13 3.91878e-13 3.91906e-13 3.91925e-13 3.91936e-13 3.91943e-13 3.91947e-13 3.9195e-13 3.91951e-13 3.91952e-13 3.91952e-13 3.91953e-13 3.91953e-13 3.91953e-13 3.91953e-13 3.91953e-13 3.91953e-13 3.91953e-13 3.91953e-13 3.91953e-13 3.91953e-13 3.91953e-13 3.91953e-13 3.91953e-13 3.91953e-13 3.91953e-13 3.91953e-13 3.91953e-13 3.91953e-13 3.91953e-13 3.91953e-13 3.91953e-13 3.91953e-13 3.91953e-13 3.91953e-13 3.91953e-13 3.91953e-13 3.91953e-13 3.91953e-13 3.91953e-13 3.91953e-13 3.91953e-13 3.91953e-13 3.91953e-13 3.91953e-13 3.91953e-13 3.91953e-13 3.91953e-13 3.91953e-13 3.91953e-13 3.91953e-13 3.91953e-13 3.91953e-13 3.91953e-13 3.91953e-13 3.91953e-13 3.91953e-13 3.91953e-13 3.91953e-13 3.91953e-13 3.91953e-13 3.91953e-13 3.91953e-13 3.91952e-13 3.91952e-13 3.91951e-13 3.9195e-13 3.91947e-13 3.91943e-13 3.91936e-13 3.91925e-13 3.91906e-13 3.91878e-13 3.91833e-13 3.91765e-13 3.91662e-13 3.91509e-13 3.91286e-13 3.90965e-13 3.9051e-13 3.89875e-13 3.89002e-13 3.87821e-13 3.86248e-13 3.84184e-13 3.81517e-13 3.78124e-13 3.73874e-13 3.68633e-13 3.62269e-13 3.54659e-13 3.457e-13 3.35315e-13 3.23463e-13 3.10145e-13 2.9541e-13 2.7936e-13 2.62145e-13 2.43968e-13 2.25069e-13 2.05724e-13 1.86229e-13 1.66884e-13 1.47985e-13 1.29808e-13 1.12593e-13 9.65427e-14 8.18079e-14 6.84898e-14 5.66378e-14 4.6253e-14 3.72941e-14 2.96841e-14 2.33196e-14 1.80786e-14 1.38291e-14 1.04364e-14 7.76944e-15 5.7051e-15 4.13172e-15 2.9509e-15 2.07827e-15 1.44325e-15 9.88199e-16 6.67096e-16 4.43967e-16 2.9128e-16 1.88387e-16 1.20103e-16 7.54758e-17 4.67519e-17 2.85441e-17 1.71771e-17 1.01881e-17 5.95573e-18 3.43141e-18 1.9485e-18 1.09046e-18 6.01457e-19 3.26946e-19 1.75156e-19 9.248e-20 4.81222e-20 2.46783e-20 1.24727e-20 6.2127e-21 3.04982e-21 1.47552e-21 7.03548e-22 3.30615e-22 1.5312e-22 6.9892e-23 3.14419e-23 1.39405e-23 6.09174e-24 2.62361e-24 1.11366e-24 4.65917e-25 1.92116e-25 7.80744e-26 3.12634e-26 1.23134e-26 4.7097e-27 1.58336e-27 0 
0 4.03843e-27 1.19878e-26 3.12634e-26 7.91706e-26 1.97203e-25 4.8402e-25 1.1709e-24 2.79191e-24 6.56147e-24 1.51991e-23 3.47018e-23 7.809e-23 1.732e-22 3.78624e-22 8.15776e-22 1.73235e-21 3.62576e-21 7.47929e-21 1.52061e-20 3.04697e-20 6.01746e-20 1.17125e-19 2.24689e-19 4.2482e-19 7.91631e-19 1.4539e-18 2.63176e-18 4.69523e-18 8.25604e-18 1.43085e-17 2.44416e-17 4.11515e-17 6.82916e-17 1.11708e-16 1.80114e-16 2.86263e-16 4.48488e-16 6.9266e-16 1.0546e-15 1.58296e-15 2.34256e-15 3.41797e-15 4.91733e-15 6.97591e-15 9.75917e-15 1.34648e-14 1.83231e-14 2.45951e-14 3.25685e-14 4.25495e-14 5.48522e-14 6.9784e-14 8.76289e-14 1.08628e-13 1.32959e-13 1.60717e-13 1.91899e-13 2.26388e-13 2.63949e-13 3.04225e-13 3.46749e-13 3.90953e-13 4.36199e-13 4.81797e-13 5.27043e-13 5.71248e-13 6.13771e-13 6.54047e-13 6.91608e-13 7.26097e-13 7.57279e-13 7.85038e-13 8.09368e-13 8.30367e-13 8.48212e-13 8.63144e-13 8.75447e-13 8.85428e-13 8.93401e-13 8.99673e-13 9.04532e-13 9.08237e-13 9.1102e-13 9.13079e-13 9.14578e-13 9.15654e-13 9.16413e-13 9.16942e-13 9.17304e-13 9.17548e-13 9.1771e-13 9.17816e-13 9.17885e-13 9.17928e-13 9.17955e-13 9.17972e-13 9.17982e-13 9.17988e-13 9.17992e-13 9.17994e-13 9.17995e-13 9.17995e-13 9.17996e-13 9.17996e-13 9.17996e-13 9.17996e-13 9.17996e-13 9.17996e-13 9.17996e-13 9.17996e-13 9.17996e-13 9.17996e-13 9.17996e-13 9.17996e-13 9.17996e-13 9.17996e-13 9.17996e-13 9.17996e-13 9.17996e-13 9.17996e-13 9.17996e-13 9.17996e-13 9.17996e-13 9.17996e-13 9.17996e-13 9.17996e-13 9.17996e-13 9.17996e-13 9.17996e-13 9.17996e-13 9.17996e-13 9.17996e-13 9.17996e-13 9.17996e-13 9.17996e-13 9.17996e-13 9.17996e-13 9.17996e-13 9.17996e-13 9.17996e-13 9.17996e-13 9.17996e-13 9.17996e-13 9.17996e-13 9.17996e-13 9.17996e-13 9.17996e-13 9.17996e-13 9.17996e-13 9.17996e-13 9.17996e-13 9.17996e-13 9.17995e-13 9.17995e-13 9.17994e-13 9.17992e-13 9.17988e-13 9.17982e-13 9.17972e-13 9.17955e-13 9.17928e-13 9.17885e-13 9.17816e-13 9.1771e-13 9.17548e-13 9.17304e-13 9.16942e-13 9.16413e-13 9.15654e-13 9.14578e-13 9.13079e-13 9.1102e-13 9.08237e-13 9.04532e-13 8.99673e-13 8.93401e-13 8.85428e-13 8.75447e-13 8.63144e-13 8.48212e-13 8.30367e-13 8.09368e-13 7.85038e-13 7.57279e-13 7.26097e-13 6.91608e-13 6.54047e-13 6.13771e-13 5.71248e-13 5.27043e-13 4.81797e-13 4.36199e-13 3.90953e-13 3.46749e-13 3.04225e-13 2.63949e-13 2.26388e-13 1.91899e-13 1.60717e-13 1.32959e-13 1.08628e-13 8.76289e-14 6.9784e-14 5.48522e-14 4.25495e-14 3.25685e-14 2.45951e-14 1.83231e-14 1.34648e-14 9.75917e-15 6.97591e-15 4.91733e-15 3.41797e-15 2.34256e-15 1.58296e-15 1.0546e-15 6.9266e-16 4.48488e-16 2.86263e-16 1.80114e-16 1.11708e-16 6.82916e-17 4.11515e-17 2.44416e-17 1.43085e-17 8.25604e-18 4.69523e-18 2.63176e-18 1.4539e-18 7.91631e-19 4.2482e-19 2.24689e-19 1.17125e-19 6.01746e-20 3.04697e-20 1.52061e-20 7.47929e-21 3.62576e-21 1.73235e-21 8.15776e-22 3.78624e-22 1.732e-22 7.809e-23 3.47018e-23 1.51991e-23 6.56147e-24 2.79191e-24 1.1709e-24 4.8402e-25 1.97203e-25 7.91706e-26 3.12634e-26 1.19878e-26 4.03843e-27 0 
0 1.01308e-26 3.00119e-26 7.80744e-26 1.97203e-25 4.89943e-25 1.19949e-24 2.89451e-24 6.88486e-24 1.61419e-23 3.73038e-23 8.49737e-23 1.90787e-22 4.2222e-22 9.20994e-22 1.98015e-21 4.19622e-21 8.76471e-21 1.8044e-20 3.66138e-20 7.32266e-20 1.44346e-19 2.8045e-19 5.37051e-19 1.01365e-18 1.8857e-18 3.45758e-18 6.24868e-18 1.11307e-17 1.95425e-17 3.38193e-17 5.76873e-17 9.69916e-17 1.60743e-16 2.62595e-16 4.22865e-16 6.71262e-16 1.05044e-15 1.62049e-15 2.46457e-15 3.69548e-15 5.4633e-15 7.9637e-15 1.14466e-14 1.62243e-14 2.26785e-14 3.12648e-14 4.25134e-14 5.70252e-14 7.54611e-14 9.85246e-14 1.26936e-13 1.61401e-13 2.0257e-13 2.50993e-13 3.07077e-13 3.71037e-13 4.42864e-13 5.22286e-13 6.08761e-13 7.01469e-13 7.99336e-13 9.01061e-13 1.00518e-12 1.1101e-12 1.21421e-12 1.31594e-12 1.4138e-12 1.50651e-12 1.59299e-12 1.67241e-12 1.74424e-12 1.8082e-12 1.86428e-12 1.9127e-12 1.95387e-12 1.98834e-12 2.01675e-12 2.03981e-12 2.05825e-12 2.07276e-12 2.08401e-12 2.09259e-12 2.09905e-12 2.10383e-12 2.10731e-12 2.10981e-12 2.11158e-12 2.11281e-12 2.11365e-12 2.11422e-12 2.1146e-12 2.11485e-12 2.11501e-12 2.11511e-12 2.11518e-12 2.11521e-12 2.11524e-12 2.11525e-12 2.11526e-12 2.11527e-12 2.11527e-12 2.11527e-12 2.11527e-12 2.11527e-12 2.11527e-12 2.11527e-12 2.11527e-12 2.11527e-12 2.11527e-12 2.11527e-12 2.11527e-12 2.11527e-12 2.11527e-12 2.11527e-12 2.11527e-12 2.11527e-12 2.11527e-12 2.11527e-12 2.11527e-12 2.11527e-12 2.11527e-12 2.11527e-12 2.11527e-12 2.11527e-12 2.11527e-12 2.11527e-12 2.11527e-12 2.11527e-12 2.11527e-12 2.11527e-12 2.11527e-12 2.11527e-12 2.11527e-12 2.11527e-12 2.11527e-12 2.11527e-12 2.11527e-12 2.11527e-12 2.11527e-12 2.11527e-12 2.11527e-12 2.11527e-12 2.11527e-12 2.11527e-12 2.11527e-12 2.11527e-12 2.11527e-12 2.11527e-12 2.11527e-12 2.11527e-12 2.11527e-12 2.11527e-12 2.11527e-12 2.11527e-12 2.11527e-12 2.11526e-12 2.11525e-12 2.11524e-12 2.11521e-12 2.11518e-12 2.11511e-12 2.11501e-12 2.11485e-12 2.1146e-12 2.11422e-12 2.11365e-12 2.11281e-12 2.11158e-12 2.10981e-12 2.10731e-12 2.10383e-12 2.09905e-12 2.09259e-12 2.08401e-12 2.07276e-12 2.05825e-12 2.03981e-12 2.01675e-12 1.98834e-12 1.95387e-12 1.9127e-12 1.86428e-12 1.8082e-12 1.74424e-12 1.67241e-12 1.59299e-12 1.50651e-12 1.4138e-12 1.31594e-12 1.21421e-12 1.1101e-12 1.00518e-12 9.01061e-13 7.99336e-13 7.01469e-13 6.08761e-13 5.22286e-13 4.42864e-13 3.71037e-13 3.07077e-13 2.50993e-13 2.0257e-13 1.61401e-13 1.26936e-13 9.85246e-14 7.54611e-14 5.70252e-14 4.25134e-14 3.12648e-14 2.26785e-14 1.62243e-14 1.14466e-14 7.9637e-15 5.4633e-15 3.69548e-15 2.46457e-15 1.62049e-15 1.05044e-15 6.71262e-16 4.22865e-16 2.62595e-16 1.60743e-16 9.69916e-17 5.76873e-17 3.38193e-17 1.95425e-17 1.11307e-17 6.24868e-18 3.45758e-18 1.8857e-18 1.01365e-18 5.37051e-19 2.8045e-19 1.44346e-19 7.32266e-20 3.66138e-20 1.8044e-20 8.76471e-21 4.19622e-21 1.98015e-21 9.20994e-22 4.2222e-22 1.90787e-22 8.49737e-23 3.73038e-23 1.61419e-23 6.88486e-24 2.89451e-24 1.19949e-24 4.89943e-25 1.97203e-25 7.80744e-26 3.00119e-26 1.01308e-26 0 
0 2.50397e-26 7.40308e-26 1.92116e-25 4.8402e-25 1.19949e-24 2.92931e-24 7.05149e-24 1.67324e-23 3.91376e-23 9.02374e-23 2.05085e-22 4.59442e-22 1.01455e-21 2.20833e-21 4.73801e-21 1.002e-20 2.0887e-20 4.29161e-20 8.69157e-20 1.73503e-19 3.41389e-19 6.62096e-19 1.26568e-18 2.38482e-18 4.42913e-18 8.10803e-18 1.46301e-17 2.60205e-17 4.56168e-17 7.88277e-17 1.34271e-16 2.25447e-16 3.73138e-16 6.08787e-16 9.79136e-16 1.55243e-15 2.42655e-15 3.73923e-15 5.68083e-15 8.50928e-15 1.25674e-14 1.83018e-14 2.62822e-14 3.72199e-14 5.19835e-14 7.16086e-14 9.72999e-14 1.30421e-13 1.7247e-13 2.25043e-13 2.89769e-13 3.68244e-13 4.61937e-13 5.72091e-13 6.9962e-13 8.45009e-13 1.00822e-12 1.18865e-12 1.38505e-12 1.59558e-12 1.81778e-12 2.04871e-12 2.28506e-12 2.52323e-12 2.75958e-12 2.99052e-12 3.21272e-12 3.42324e-12 3.61964e-12 3.80007e-12 3.96328e-12 4.10867e-12 4.2362e-12 4.34635e-12 4.44005e-12 4.51852e-12 4.58325e-12 4.63582e-12 4.67787e-12 4.71099e-12 4.73668e-12 4.75631e-12 4.77107e-12 4.78201e-12 4.78999e-12 4.79572e-12 4.79978e-12 4.80261e-12 4.80455e-12 4.80587e-12 4.80674e-12 4.80731e-12 4.80768e-12 4.80792e-12 4.80807e-12 4.80816e-12 4.80821e-12 4.80825e-12 4.80827e-12 4.80828e-12 4.80828e-12 4.80829e-12 4.80829e-12 4.80829e-12 4.80829e-12 4.80829e-12 4.80829e-12 4.80829e-12 4.80829e-12 4.80829e-12 4.80829e-12 4.80829e-12 4.80829e-12 4.80829e-12 4.80829e-12 4.80829e-12 4.80829e-12 4.80829e-12 4.80829e-12 4.80829e-12 4.80829e-12 4.80829e-12 4.80829e-12 4.80829e-12 4.80829e-12 4.80829e-12 4.80829e-12 4.80829e-12 4.80829e-12 4.80829e-12 4.80829e-12 4.80829e-12 4.80829e-12 4.80829e-12 4.80829e-12 4.80829e-12 4.80829e-12 4.80829e-12 4.80829e-12 4.80829e-12 4.80829e-12 4.80829e-12 4.80829e-12 4.80829e-12 4.80829e-12 4.80829e-12 4.80829e-12 4.80829e-12 4.80829e-12 4.80829e-12 4.80829e-12 4.80829e-12 4.80829e-12 4.80828e-12 4.80828e-12 4.80827e-12 4.80825e-12 4.80821e-12 4.80816e-12 4.80807e-12 4.80792e-12 4.80768e-12 4.80731e-12 4.80674e-12 4.80587e-12 4.80455e-12 4.80261e-12 4.79978e-12 4.79572e-12 4.78999e-12 4.78201e-12 4.77107e-12 4.75631e-12 4.73668e-12 4.71099e-12 4.67787e-12 4.63582e-12 4.58325e-12 4.51852e-12 4.44005e-12 4.34635e-12 4.2362e-12 4.10867e-12 3.96328e-12 3.80007e-12 3.61964e-12 3.42324e-12 3.21272e-12 2.99052e-12 2.75958e-12 2.52323e-12 2.28506e-12 2.04871e-12 1.81778e-12 1.59558e-12 1.38505e-12 1.18865e-12 1.00822e-12 8.45009e-13 6.9962e-13 5.72091e-13 4.61937e-13 3.68244e-13 2.89769e-13 2.25043e-13 1.7247e-13 1.30421e-13 9.72999e-14 7.16086e-14 5.19835e-14 3.72199e-14 2.62822e-14 1.83018e-14 1.25674e-14 8.50928e-15 5.68083e-15 3.73923e-15 2.42655e-15 1.55243e-15 9.79136e-16 6.08787e-16 3.73138e-16 2.25447e-16 1.34271e-16 7.88277e-17 4.56168e-17 2.60205e-17 1.46301e-17 8.10803e-18 4.42913e-18 2.38482e-18 1.26568e-18 6.62096e-19 3.41389e-19 1.73503e-19 8.69157e-20 4.29161e-20 2.0887e-20 1.002e-20 4.73801e-21 2.20833e-21 1.01455e-21 4.59442e-22 2.05085e-22 9.02374e-23 3.91376e-23 1.67324e-23 7.05149e-24 2.92931e-24 1.19949e-24 4.8402e-25 1.92116e-25 7.40308e-26 2.50397e-26 0 
0 6.09908e-26 1.7997e-25 4.65917e-25 1.1709e-24 2.89451e-24 7.05149e-24 1.69337e-23 4.00871e-23 9.35481e-23 2.15199e-22 4.88e-22 1.09086e-21 2.40371e-21 5.22108e-21 1.11789e-20 2.35937e-20 4.90851e-20 1.0066e-19 2.03477e-19 4.05439e-19 7.96315e-19 1.54167e-18 2.94205e-18 5.5342e-18 1.02615e-17 1.87549e-17 3.37889e-17 6.00051e-17 1.05041e-16 1.81258e-16 3.08319e-16 5.16987e-16 8.54553e-16 1.39248e-15 2.23685e-15 3.54239e-15 5.53068e-15 8.51329e-15 1.29202e-14 1.93335e-14 2.8526e-14 4.15035e-14 5.95476e-14 8.42574e-14 1.17583e-13 1.61849e-13 2.19756e-13 2.94357e-13 3.89007e-13 5.07272e-13 6.52797e-13 8.29142e-13 1.03958e-12 1.28689e-12 1.57309e-12 1.89925e-12 2.2653e-12 2.66983e-12 3.11009e-12 3.5819e-12 4.07981e-12 4.59725e-12 5.12677e-12 5.66038e-12 6.18991e-12 6.70735e-12 7.20526e-12 7.67707e-12 8.11732e-12 8.52186e-12 8.8879e-12 9.21407e-12 9.50027e-12 9.74757e-12 9.95801e-12 1.01344e-11 1.02799e-11 1.03981e-11 1.04928e-11 1.05674e-11 1.06253e-11 1.06696e-11 1.07029e-11 1.07276e-11 1.07457e-11 1.07586e-11 1.07678e-11 1.07742e-11 1.07786e-11 1.07816e-11 1.07836e-11 1.07849e-11 1.07858e-11 1.07863e-11 1.07866e-11 1.07868e-11 1.0787e-11 1.07871e-11 1.07871e-11 1.07871e-11 1.07871e-11 1.07871e-11 1.07871e-11 1.07872e-11 1.07872e-11 1.07872e-11 1.07872e-11 1.07872e-11 1.07872e-11 1.07872e-11 1.07872e-11 1.07872e-11 1.07872e-11 1.07872e-11 1.07872e-11 1.07872e-11 1.07872e-11 1.07872e-11 1.07872e-11 1.07872e-11 1.07872e-11 1.07872e-11 1.07872e-11 1.07872e-11 1.07872e-11 1.07872e-11 1.07872e-11 1.07872e-11 1.07872e-11 1.07872e-11 1.07872e-11 1.07872e-11 1.07872e-11 1.07872e-11 1.07872e-11 1.07872e-11 1.07872e-11 1.07872e-11 1.07872e-11 1.07872e-11 1.07872e-11 1.07872e-11 1.07872e-11 1.07872e-11 1.07872e-11 1.07872e-11 1.07872e-11 1.07872e-11 1.07872e-11 1.07872e-11 1.07872e-11 1.07871e-11 1.07871e-11 1.07871e-11 1.07871e-11 1.07871e-11 1.07871e-11 1.0787e-11 1.07868e-11 1.07866e-11 1.07863e-11 1.07858e-11 1.07849e-11 1.07836e-11 1.07816e-11 1.07786e-11 1.07742e-11 1.07678e-11 1.07586e-11 1.07457e-11 1.07276e-11 1.07029e-11 1.06696e-11 1.06253e-11 1.05674e-11 1.04928e-11 1.03981e-11 1.02799e-11 1.01344e-11 9.95801e-12 9.74757e-12 9.50027e-12 9.21407e-12 8.8879e-12 8.52186e-12 8.11732e-12 7.67707e-12 7.20526e-12 6.70735e-12 6.18991e-12 5.66038e-12 5.12677e-12 4.59725e-12 4.07981e-12 3.5819e-12 3.11009e-12 2.66983e-12 2.2653e-12 1.89925e-12 1.57309e-12 1.28689e-12 1.03958e-12 8.29142e-13 6.52797e-13 5.07272e-13 3.89007e-13 2.94357e-13 2.19756e-13 1.61849e-13 1.17583e-13 8.42574e-14 5.95476e-14 4.15035e-14 2.8526e-14 1.93335e-14 1.29202e-14 8.51329e-15 5.53068e-15 3.54239e-15 2.23685e-15 1.39248e-15 8.54553e-16 5.16987e-16 3.08319e-16 1.81258e-16 1.05041e-16 6.00051e-17 3.37889e-17 1.87549e-17 1.02615e-17 5.5342e-18 2.94205e-18 1.54167e-18 7.96315e-19 4.05439e-19 2.03477e-19 1.0066e-19 4.90851e-20 2.35937e-20 1.11789e-20 5.22108e-21 2.40371e-21 1.09086e-21 4.88e-22 2.15199e-22 9.35481e-23 4.00871e-23 1.69337e-23 7.05149e-24 2.89451e-24 1.1709e-24 4.65917e-25 1.7997e-25 6.09908e-26 0 
0 1.46408e-25 4.31191e-25 1.11366e-24 2.79191e-24 6.88486e-24 1.67324e-23 4.00871e-23 9.46782e-23 2.20441e-22 5.05976e-22 1.14488e-21 2.55373e-21 5.61535e-21 1.2172e-20 2.60089e-20 5.4785e-20 1.13756e-19 2.32841e-19 4.69803e-19 9.34414e-19 1.83202e-18 3.5407e-18 6.74551e-18 1.26679e-17 2.34512e-17 4.2795e-17 7.69823e-17 1.36509e-16 2.38622e-16 4.11187e-16 6.98479e-16 1.16966e-15 1.93093e-15 3.14252e-15 5.04206e-15 7.97565e-15 1.24384e-14 1.91256e-14 2.89959e-14 4.33457e-14 6.38944e-14 9.28772e-14 1.3314e-13 1.8823e-13 2.62471e-13 3.61008e-13 4.89817e-13 6.55651e-13 8.65921e-13 1.12849e-12 1.45141e-12 1.84252e-12 2.30903e-12 2.85703e-12 3.49096e-12 4.21317e-12 5.02344e-12 5.91866e-12 6.89271e-12 7.93639e-12 9.03765e-12 1.0182e-11 1.1353e-11 1.2533e-11 1.37039e-11 1.48483e-11 1.59495e-11 1.69932e-11 1.79673e-11 1.88625e-11 1.96728e-11 2.0395e-11 2.10289e-11 2.15769e-11 2.20434e-11 2.24345e-11 2.27574e-11 2.302e-11 2.32303e-11 2.33961e-11 2.35249e-11 2.36235e-11 2.36977e-11 2.37528e-11 2.3793e-11 2.3822e-11 2.38426e-11 2.38569e-11 2.38668e-11 2.38735e-11 2.38779e-11 2.38809e-11 2.38828e-11 2.3884e-11 2.38848e-11 2.38852e-11 2.38855e-11 2.38857e-11 2.38858e-11 2.38858e-11 2.38859e-11 2.38859e-11 2.38859e-11 2.38859e-11 2.38859e-11 2.38859e-11 2.38859e-11 2.38859e-11 2.38859e-11 2.38859e-11 2.38859e-11 2.38859e-11 2.38859e-11 2.38859e-11 2.38859e-11 2.38859e-11 2.38859e-11 2.38859e-11 2.38859e-11 2.38859e-11 2.38859e-11 2.38859e-11 2.38859e-11 2.38859e-11 2.38859e-11 2.38859e-11 2.38859e-11 2.38859e-11 2.38859e-11 2.38859e-11 2.38859e-11 2.38859e-11 2.38859e-11 2.38859e-11 2.38859e-11 2.38859e-11 2.38859e-11 2.38859e-11 2.38859e-11 2.38859e-11 2.38859e-11 2.38859e-11 2.38859e-11 2.38859e-11 2.38859e-11 2.38859e-11 2.38859e-11 2.38859e-11 2.38859e-11 2.38859e-11 2.38859e-11 2.38859e-11 2.38859e-11 2.38859e-11 2.38858e-11 2.38858e-11 2.38857e-11 2.38855e-11 2.38852e-11 2.38848e-11 2.3884e-11 2.38828e-11 2.38809e-11 2.38779e-11 2.38735e-11 2.38668e-11 2.38569e-11 2.38426e-11 2.3822e-11 2.3793e-11 2.37528e-11 2.36977e-11 2.36235e-11 2.35249e-11 2.33961e-11 2.32303e-11 2.302e-11 2.27574e-11 2.24345e-11 2.20434e-11 2.15769e-11 2.10289e-11 2.0395e-11 1.96728e-11 1.88625e-11 1.79673e-11 1.69932e-11 1.59495e-11 1.48483e-11 1.37039e-11 1.2533e-11 1.1353e-11 1.0182e-11 9.03765e-12 7.93639e-12 6.89271e-12 5.91866e-12 5.02344e-12 4.21317e-12 3.49096e-12 2.85703e-12 2.30903e-12 1.84252e-12 1.45141e-12 1.12849e-12 8.65921e-13 6.55651e-13 4.89817e-13 3.61008e-13 2.62471e-13 1.8823e-13 1.3314e-13 9.28772e-14 6.38944e-14 4.33457e-14 2.89959e-14 1.91256e-14 1.24384e-14 7.97565e-15 5.04206e-15 3.14252e-15 1.93093e-15 1.16966e-15 6.98479e-16 4.11187e-16 2.38622e-16 1.36509e-16 7.69823e-17 4.2795e-17 2.34512e-17 1.26679e-17 6.74551e-18 3.5407e-18 1.83202e-18 9.34414e-19 4.69803e-19 2.32841e-19 1.13756e-19 5.4785e-20 2.60089e-20 1.2172e-20 5.61535e-21 2.55373e-21 1.14488e-21 5.05976e-22 2.20441e-22 9.46782e-23 4.00871e-23 1.67324e-23 6.88486e-24 2.79191e-24 1.11366e-24 4.31191e-25 1.46408e-25 0 
0 3.4636e-25 1.01817e-24 2.62361e-24 6.56147e-24 1.61419e-23 3.91376e-23 9.35481e-23 2.20441e-22 5.12114e-22 1.17288e-21 2.64819e-21 5.89457e-21 1.29347e-20 2.7981e-20 5.96712e-20 1.25447e-19 2.59986e-19 5.31165e-19 1.06978e-18 2.12397e-18 4.15707e-18 8.02066e-18 1.52552e-17 2.86028e-17 5.28669e-17 9.63266e-17 1.7302e-16 3.06364e-16 5.34776e-16 9.20248e-16 1.56114e-15 2.61088e-15 4.30475e-15 6.99736e-15 1.12138e-14 1.77182e-14 2.76021e-14 4.23971e-14 6.42121e-14 9.58963e-14 1.41225e-13 2.05101e-13 2.93761e-13 4.14971e-13 5.7819e-13 7.94664e-13 1.07744e-12 1.44126e-12 1.90229e-12 2.47765e-12 3.18486e-12 4.04098e-12 5.06168e-12 6.26017e-12 7.64608e-12 9.22444e-12 1.09947e-11 1.29501e-11 1.50772e-11 1.73559e-11 1.976e-11 2.22579e-11 2.48138e-11 2.73893e-11 2.99452e-11 3.24431e-11 3.48472e-11 3.71259e-11 3.9253e-11 4.12084e-11 4.29786e-11 4.4557e-11 4.59429e-11 4.71414e-11 4.81621e-11 4.90182e-11 4.97254e-11 5.03008e-11 5.07618e-11 5.11256e-11 5.14084e-11 5.16249e-11 5.17881e-11 5.19093e-11 5.1998e-11 5.20618e-11 5.21072e-11 5.21388e-11 5.21607e-11 5.21755e-11 5.21853e-11 5.21918e-11 5.21961e-11 5.21988e-11 5.22005e-11 5.22015e-11 5.22021e-11 5.22025e-11 5.22028e-11 5.22029e-11 5.2203e-11 5.2203e-11 5.2203e-11 5.2203e-11 5.22031e-11 5.22031e-11 5.22031e-11 5.22031e-11 5.22031e-11 5.22031e-11 5.22031e-11 5.22031e-11 5.22031e-11 5.22031e-11 5.22031e-11 5.22031e-11 5.22031e-11 5.22031e-11 5.22031e-11 5.22031e-11 5.22031e-11 5.22031e-11 5.22031e-11 5.22031e-11 5.22031e-11 5.22031e-11 5.22031e-11 5.22031e-11 5.22031e-11 5.22031e-11 5.22031e-11 5.22031e-11 5.22031e-11 5.22031e-11 5.22031e-11 5.22031e-11 5.22031e-11 5.22031e-11 5.22031e-11 5.22031e-11 5.22031e-11 5.22031e-11 5.22031e-11 5.22031e-11 5.22031e-11 5.22031e-11 5.22031e-11 5.22031e-11 5.22031e-11 5.22031e-11 5.2203e-11 5.2203e-11 5.2203e-11 5.2203e-11 5.22029e-11 5.22028e-11 5.22025e-11 5.22021e-11 5.22015e-11 5.22005e-11 5.21988e-11 5.21961e-11 5.21918e-11 5.21853e-11 5.21755e-11 5.21607e-11 5.21388e-11 5.21072e-11 5.20618e-11 5.1998e-11 5.19093e-11 5.17881e-11 5.16249e-11 5.14084e-11 5.11256e-11 5.07618e-11 5.03008e-11 4.97254e-11 4.90182e-11 4.81621e-11 4.71414e-11 4.59429e-11 4.4557e-11 4.29786e-11 4.12084e-11 3.9253e-11 3.71259e-11 3.48472e-11 3.24431e-11 2.99452e-11 2.73893e-11 2.48138e-11 2.22579e-11 1.976e-11 1.73559e-11 1.50772e-11 1.29501e-11 1.09947e-11 9.22444e-12 7.64608e-12 6.26017e-12 5.06168e-12 4.04098e-12 3.18486e-12 2.47765e-12 1.90229e-12 1.44126e-12 1.07744e-12 7.94664e-13 5.7819e-13 4.14971e-13 2.93761e-13 2.05101e-13 1.41225e-13 9.58963e-14 6.42121e-14 4.23971e-14 2.76021e-14 1.77182e-14 1.12138e-14 6.99736e-15 4.30475e-15 2.61088e-15 1.56114e-15 9.20248e-16 5.34776e-16 3.06364e-16 1.7302e-16 9.63266e-17 5.28669e-17 2.86028e-17 1.52552e-17 8.02066e-18 4.15707e-18 2.12397e-18 1.06978e-18 5.31165e-19 2.59986e-19 1.25447e-19 5.96712e-20 2.7981e-20 1.29347e-20 5.89457e-21 2.64819e-21 1.17288e-21 5.12114e-22 2.20441e-22 9.35481e-23 3.91376e-23 1.61419e-23 6.56147e-24 2.62361e-24 1.01817e-24 3.4636e-25 0 