<?xml version="1.0"?>
<VTKFile type="ImageData" version="0.1" byte_order="LittleEndian">
  <ImageData WholeExtent="0 255 0 255 0 0" Origin="0 0 0" Spacing="1 1 1">
  <Piece Extent="0 255 0 255 0 0">
    <PointData>
      <DataArray type="Float32" Name="scalar_data" format="ascii" >0 0 0 0 0 0 0 0 0 0 0 0 0 0 0 0 0 0 0 0 0 0 0 0 0 0 0 0 0 0 0 0 0 0 0 0 0 0 0 0 0 0 0 0 0 0 0 0 0 0 0 0 0 0 0 0 0 0 0 0 0 0 0 0 0 0 0 0 0 0 0 0 0 0 0 0 0 0 0 0 0 0 0 0 0 0 0 0 0 0 0 0 0 0 0 0 0 0 0 0 0 0 0 0 0 0 0 0 0 0 0 0 0 0 0 0 0 0 0 0 0 0 0 0 0 0 0 0 0 0 0 0 0 0 0 0 0 0 0 0 0 0 0 0 0 0 0 0 0 0 0 0 0 0 0 0 0 0 0 0 0 0 0 0 0 0 0 0 0 0 0 0 0 0 0 0 0 0 0 0 0 0 0 0 0 0 0 0 0 0 0 0 0 0 0 0 0 0 0 0 0 0 0 0 0 0 0 0 0 0 0 0 0 0 0 0 0 0 0 0 0 0 0 0 0 0 0 0 0 0 0 0 0 0 0 0 0 0 0 0 0 0 0 0 0 0 0 0 0 0 0 0 0 0 0 0 
0 2.59981e-12 5.47391e-12 8.91954e-12 1.32813e-11 1.89781e-11 2.65347e-11 3.66188e-11 5.00853e-11 6.80313e-11 9.18609e-11 1.23365e-10 1.64817e-10 2.19086e-10 2.89776e-10 3.8138e-10 4.99475e-10 6.5093e-10 8.44163e-10 1.08941e-09 1.39907e-09 1.78801e-09 2.27398e-09 2.87805e-09 3.62498e-09 4.54376e-09 5.66804e-09 7.03661e-09 8.69385e-09 1.06902e-08 1.30825e-08 1.59343e-08 1.93162e-08 2.33057e-08 2.79874e-08 3.34528e-08 3.97997e-08 4.71318e-08 5.55577e-08 6.519e-08 7.61439e-08 8.85357e-08 1.02481e-07 1.18091e-07 1.35476e-07 1.54734e-07 1.75956e-07 1.9922e-07 2.24589e-07 2.52109e-07 2.81806e-07 3.13684e-07 3.47724e-07 3.83883e-07 4.22091e-07 4.62254e-07 5.0425e-07 5.47933e-07 5.93133e-07 6.39657e-07 6.87294e-07 7.35814e-07 7.84976e-07 8.34526e-07 8.84207e-07 9.33757e-07 9.82919e-07 1.03144e-06 1.07908e-06 1.1256e-06 1.1708e-06 1.21448e-06 1.25648e-06 1.29664e-06 1.33485e-06 1.37101e-06 1.40505e-06 1.43693e-06 1.46662e-06 1.49414e-06 1.51951e-06 1.54278e-06 1.564e-06 1.58326e-06 1.60064e-06 1.61625e-06 1.6302e-06 1.64259e-06 1.65354e-06 1.66318e-06 1.6716e-06 1.67893e-06 1.68528e-06 1.69075e-06 1.69543e-06 1.69942e-06 1.7028e-06 1.70565e-06 1.70804e-06 1.71004e-06 1.7117e-06 1.71307e-06 1.71419e-06 1.71511e-06 1.71586e-06 1.71646e-06 1.71695e-06 1.71733e-06 1.71764e-06 1.71789e-06 1.71808e-06 1.71823e-06 1.71835e-06 1.71844e-06 1.71851e-06 1.71857e-06 1.71861e-06 1.71864e-06 1.71867e-06 1.71868e-06 1.7187e-06 1.71871e-06 1.71871e-06 1.71872e-06 1.71872e-06 1.71872e-06 1.71873e-06 1.71873e-06 1.71873e-06 1.71873e-06 1.71872e-06 1.71872e-06 1.71872e-06 1.71871e-06 1.71871e-06 1.7187e-06 1.71868e-06 1.71867e-06 1.71864e-06 1.71861e-06 1.71857e-06 1.71851e-06 1.71844e-06 1.71835e-06 1.71823e-06 1.71808e-06 1.71789e-06 1.71764e-06 1.71733e-06 1.71695e-06 1.71646e-06 1.71586e-06 1.71511e-06 1.71419e-06 1.71307e-06 1.7117e-06 1.71004e-06 1.70804e-06 1.70565e-06 1.7028e-06 1.69942e-06 1.69543e-06 1.69075e-06 1.68528e-06 1.67893e-06 1.6716e-06 1.66318e-06 1.65354e-06 1.64259e-06 1.6302e-06 1.61625e-06 1.60064e-06 1.58326e-06 1.564e-06 1.54278e-06 1.51951e-06 1.49414e-06 1.46662e-06 1.43693e-06 1.40505e-06 1.37101e-06 1.33485e-06 1.29664e-06 1.25648e-06 1.21448e-06 1.1708e-06 1.1256e-06 1.07908e-06 1.03144e-06 9.82919e-07 9.33757e-07 8.84207e-07 8.34526e-07 7.84976e-07 7.35814e-07 6.87294e-07 6.39657e-07 5.93133e-07 5.47933e-07 5.0425e-07 4.62254e-07 4.22091e-07 3.83883e-07 3.47724e-07 3.13684e-07 2.81806e-07 2.52109e-07 2.24589e-07 1.9922e-07 1.75956e-07 1.54734e-07 1.35476e-07 1.18091e-07 1.02481e-07 8.85357e-08 7.61439e-08 6.519e-08 5.55577e-08 4.71318e-08 3.97997e-08 3.34528e-08 2.79874e-08 2.33057e-08 1.93162e-08 1.59343e-08 1.30825e-08 1.06902e-08 8.69385e-09 7.03661e-09 5.66804e-09 4.54376e-09 3.62498e-09 2.87805e-09 2.27398e-09 1.78801e-09 1.39907e-09 1.08941e-09 8.44163e-10 6.5093e-10 4.99475e-10 3.8138e-10 2.89776e-10 2.19086e-10 1.64817e-10 1.23365e-10 9.18609e-11 6.80313e-11 5.00853e-11 3.66188e-11 2.65347e-11 1.89781e-11 1.32813e-11 8.91954e-12 5.47391e-12 2.59981e-12 0 
0 5.47391e-12 1.15252e-11 1.87794e-11 2.7962e-11 3.99547e-11 5.58618e-11 7.70882e-11 1.05434e-10 1.43206e-10 1.9336e-10 2.59665e-10 3.46902e-10 4.61111e-10 6.09869e-10 8.02636e-10 1.05114e-09 1.36983e-09 1.77641e-09 2.29244e-09 2.94395e-09 3.76225e-09 4.78468e-09 6.05552e-09 7.62688e-09 9.55972e-09 1.19248e-08 1.48037e-08 1.82898e-08 2.24891e-08 2.75211e-08 3.35196e-08 4.06328e-08 4.90239e-08 5.88708e-08 7.03656e-08 8.37142e-08 9.91345e-08 1.16855e-07 1.37112e-07 1.60149e-07 1.86208e-07 2.15534e-07 2.48362e-07 2.8492e-07 3.25417e-07 3.70043e-07 4.18963e-07 4.72309e-07 5.30177e-07 5.92621e-07 6.59652e-07 7.31229e-07 8.0726e-07 8.876e-07 9.72049e-07 1.06035e-06 1.1522e-06 1.24724e-06 1.34506e-06 1.44523e-06 1.54724e-06 1.65061e-06 1.7548e-06 1.85926e-06 1.96344e-06 2.06681e-06 2.16883e-06 2.26899e-06 2.36681e-06 2.46185e-06 2.5537e-06 2.642e-06 2.72645e-06 2.80679e-06 2.88282e-06 2.9544e-06 3.02143e-06 3.08388e-06 3.14174e-06 3.19509e-06 3.24401e-06 3.28864e-06 3.32913e-06 3.36569e-06 3.39852e-06 3.42785e-06 3.4539e-06 3.47694e-06 3.4972e-06 3.51492e-06 3.53034e-06 3.54369e-06 3.55518e-06 3.56503e-06 3.57342e-06 3.58053e-06 3.58653e-06 3.59156e-06 3.59576e-06 3.59925e-06 3.60213e-06 3.60449e-06 3.60643e-06 3.608e-06 3.60927e-06 3.61029e-06 3.61111e-06 3.61176e-06 3.61228e-06 3.61268e-06 3.613e-06 3.61325e-06 3.61344e-06 3.61359e-06 3.61371e-06 3.61379e-06 3.61386e-06 3.61391e-06 3.61395e-06 3.61398e-06 3.614e-06 3.61401e-06 3.61402e-06 3.61403e-06 3.61404e-06 3.61404e-06 3.61404e-06 3.61404e-06 3.61404e-06 3.61404e-06 3.61403e-06 3.61402e-06 3.61401e-06 3.614e-06 3.61398e-06 3.61395e-06 3.61391e-06 3.61386e-06 3.61379e-06 3.61371e-06 3.61359e-06 3.61344e-06 3.61325e-06 3.613e-06 3.61268e-06 3.61228e-06 3.61176e-06 3.61111e-06 3.61029e-06 3.60927e-06 3.608e-06 3.60643e-06 3.60449e-06 3.60213e-06 3.59925e-06 3.59576e-06 3.59156e-06 3.58653e-06 3.58053e-06 3.57342e-06 3.56503e-06 3.55518e-06 3.54369e-06 3.53034e-06 3.51492e-06 3.4972e-06 3.47694e-06 3.4539e-06 3.42785e-06 3.39852e-06 3.36569e-06 3.32913e-06 3.28864e-06 3.24401e-06 3.19509e-06 3.14174e-06 3.08388e-06 3.02143e-06 2.9544e-06 2.88282e-06 2.80679e-06 2.72645e-06 2.642e-06 2.5537e-06 2.46185e-06 2.36681e-06 2.26899e-06 2.16883e-06 2.06681e-06 1.96344e-06 1.85926e-06 1.7548e-06 1.65061e-06 1.54724e-06 1.44523e-06 1.34506e-06 1.24724e-06 1.1522e-06 1.06035e-06 9.72049e-07 8.876e-07 8.0726e-07 7.31229e-07 6.59652e-07 5.92621e-07 5.30177e-07 4.72309e-07 4.18963e-07 3.70043e-07 3.25417e-07 2.8492e-07 2.48362e-07 2.15534e-07 1.86208e-07 1.60149e-07 1.37112e-07 1.16855e-07 9.91345e-08 8.37142e-08 7.03656e-08 5.88708e-08 4.90239e-08 4.06328e-08 3.35196e-08 2.75211e-08 2.24891e-08 1.82898e-08 1.48037e-08 1.19248e-08 9.55972e-09 7.62688e-09 6.05552e-09 4.78468e-09 3.76225e-09 2.94395e-09 2.29244e-09 1.77641e-09 1.36983e-09 1.05114e-09 8.02636e-10 6.09869e-10 4.61111e-10 3.46902e-10 2.59665e-10 1.9336e-10 1.43206e-10 1.05434e-10 7.70882e-11 5.58618e-11 3.99547e-11 2.7962e-11 1.87794e-11 1.15252e-11 5.47391e-12 0 
0 8.91954e-12 1.87794e-11 3.05988e-11 4.55587e-11 6.50952e-11 9.10066e-11 1.2558e-10 1.71746e-10 2.33263e-10 3.14939e-10 4.22909e-10 5.64959e-10 7.50916e-10 9.93115e-10 1.30695e-09 1.7115e-09 2.23029e-09 2.89213e-09 3.73207e-09 4.7925e-09 6.12433e-09 7.78833e-09 9.85651e-09 1.24137e-08 1.55589e-08 1.94074e-08 2.40918e-08 2.97639e-08 3.65963e-08 4.47832e-08 5.45422e-08 6.61143e-08 7.97649e-08 9.57832e-08 1.14482e-07 1.36195e-07 1.61278e-07 1.90101e-07 2.23049e-07 2.60517e-07 3.02901e-07 3.50595e-07 4.03985e-07 4.63439e-07 5.29298e-07 6.01872e-07 6.81426e-07 7.68176e-07 8.62278e-07 9.63821e-07 1.07282e-06 1.18921e-06 1.31284e-06 1.44348e-06 1.5808e-06 1.72438e-06 1.87373e-06 2.02826e-06 2.18732e-06 2.35018e-06 2.51606e-06 2.68413e-06 2.85353e-06 3.02337e-06 3.19277e-06 3.36085e-06 3.52673e-06 3.68959e-06 3.84865e-06 4.00318e-06 4.15253e-06 4.29611e-06 4.43342e-06 4.56406e-06 4.68769e-06 4.80408e-06 4.91308e-06 5.01463e-06 5.10873e-06 5.19548e-06 5.27503e-06 5.34761e-06 5.41346e-06 5.47292e-06 5.52631e-06 5.574e-06 5.61639e-06 5.65385e-06 5.6868e-06 5.71563e-06 5.74071e-06 5.76242e-06 5.78112e-06 5.79714e-06 5.81079e-06 5.82236e-06 5.83212e-06 5.84031e-06 5.84714e-06 5.85281e-06 5.8575e-06 5.86135e-06 5.86449e-06 5.86705e-06 5.86912e-06 5.87078e-06 5.87211e-06 5.87317e-06 5.87401e-06 5.87467e-06 5.87519e-06 5.8756e-06 5.87591e-06 5.87615e-06 5.87634e-06 5.87648e-06 5.87659e-06 5.87667e-06 5.87673e-06 5.87678e-06 5.87681e-06 5.87683e-06 5.87685e-06 5.87687e-06 5.87687e-06 5.87688e-06 5.87688e-06 5.87688e-06 5.87688e-06 5.87687e-06 5.87687e-06 5.87685e-06 5.87683e-06 5.87681e-06 5.87678e-06 5.87673e-06 5.87667e-06 5.87659e-06 5.87648e-06 5.87634e-06 5.87615e-06 5.87591e-06 5.8756e-06 5.87519e-06 5.87467e-06 5.87401e-06 5.87317e-06 5.87211e-06 5.87078e-06 5.86912e-06 5.86705e-06 5.86449e-06 5.86135e-06 5.8575e-06 5.85281e-06 5.84714e-06 5.84031e-06 5.83212e-06 5.82236e-06 5.81079e-06 5.79714e-06 5.78112e-06 5.76242e-06 5.74071e-06 5.71563e-06 5.6868e-06 5.65385e-06 5.61639e-06 5.574e-06 5.52631e-06 5.47292e-06 5.41346e-06 5.34761e-06 5.27503e-06 5.19548e-06 5.10873e-06 5.01463e-06 4.91308e-06 4.80408e-06 4.68769e-06 4.56406e-06 4.43342e-06 4.29611e-06 4.15253e-06 4.00318e-06 3.84865e-06 3.68959e-06 3.52673e-06 3.36085e-06 3.19277e-06 3.02337e-06 2.85353e-06 2.68413e-06 2.51606e-06 2.35018e-06 2.18732e-06 2.02826e-06 1.87373e-06 1.72438e-06 1.5808e-06 1.44348e-06 1.31284e-06 1.18921e-06 1.07282e-06 9.63821e-07 8.62278e-07 7.68176e-07 6.81426e-07 6.01872e-07 5.29298e-07 4.63439e-07 4.03985e-07 3.50595e-07 3.02901e-07 2.60517e-07 2.23049e-07 1.90101e-07 1.61278e-07 1.36195e-07 1.14482e-07 9.57832e-08 7.97649e-08 6.61143e-08 5.45422e-08 4.47832e-08 3.65963e-08 2.97639e-08 2.40918e-08 1.94074e-08 1.55589e-08 1.24137e-08 9.85651e-09 7.78833e-09 6.12433e-09 4.7925e-09 3.73207e-09 2.89213e-09 2.23029e-09 1.7115e-09 1.30695e-09 9.93115e-10 7.50916e-10 5.64959e-10 4.22909e-10 3.14939e-10 2.33263e-10 1.71746e-10 1.2558e-10 9.10066e-11 6.50952e-11 4.55587e-11 3.05988e-11 1.87794e-11 8.91954e-12 0 
0 1.32813e-11 2.7962e-11 4.55587e-11 6.78289e-11 9.69092e-11 1.35475e-10 1.86929e-10 2.55629e-10 3.47165e-10 4.68689e-10 6.29324e-10 8.40646e-10 1.11727e-09 1.47753e-09 1.9443e-09 2.54597e-09 3.31749e-09 4.30168e-09 5.55064e-09 7.12737e-09 9.10752e-09 1.15814e-08 1.4656e-08 1.84572e-08 2.31325e-08 2.88528e-08 3.58152e-08 4.42452e-08 5.43991e-08 6.65655e-08 8.10674e-08 9.82629e-08 1.18546e-07 1.42346e-07 1.70128e-07 2.02387e-07 2.39651e-07 2.8247e-07 3.31416e-07 3.87074e-07 4.50032e-07 5.20878e-07 6.00181e-07 6.88487e-07 7.86306e-07 8.94094e-07 1.01225e-06 1.14109e-06 1.28084e-06 1.43164e-06 1.59351e-06 1.76636e-06 1.94995e-06 2.14395e-06 2.34786e-06 2.56108e-06 2.78285e-06 3.01232e-06 3.24851e-06 3.49034e-06 3.73666e-06 3.98623e-06 4.23778e-06 4.48998e-06 4.74152e-06 4.99109e-06 5.23741e-06 5.47924e-06 5.71543e-06 5.9449e-06 6.16668e-06 6.37989e-06 6.5838e-06 6.7778e-06 6.9614e-06 7.13424e-06 7.29611e-06 7.44691e-06 7.58667e-06 7.71551e-06 7.83366e-06 7.94145e-06 8.03927e-06 8.12757e-06 8.20688e-06 8.27772e-06 8.34068e-06 8.39634e-06 8.44528e-06 8.4881e-06 8.52537e-06 8.55763e-06 8.58541e-06 8.60921e-06 8.62949e-06 8.64669e-06 8.66119e-06 8.67336e-06 8.68351e-06 8.69194e-06 8.6989e-06 8.70462e-06 8.7093e-06 8.7131e-06 8.71617e-06 8.71865e-06 8.72063e-06 8.7222e-06 8.72345e-06 8.72444e-06 8.72521e-06 8.72581e-06 8.72628e-06 8.72664e-06 8.72691e-06 8.72713e-06 8.72729e-06 8.72741e-06 8.7275e-06 8.72757e-06 8.72762e-06 8.72765e-06 8.72768e-06 8.7277e-06 8.72771e-06 8.72772e-06 8.72772e-06 8.72772e-06 8.72772e-06 8.72771e-06 8.7277e-06 8.72768e-06 8.72765e-06 8.72762e-06 8.72757e-06 8.7275e-06 8.72741e-06 8.72729e-06 8.72713e-06 8.72691e-06 8.72664e-06 8.72628e-06 8.72581e-06 8.72521e-06 8.72444e-06 8.72345e-06 8.7222e-06 8.72063e-06 8.71865e-06 8.71617e-06 8.7131e-06 8.7093e-06 8.70462e-06 8.6989e-06 8.69194e-06 8.68351e-06 8.67336e-06 8.66119e-06 8.64669e-06 8.62949e-06 8.60921e-06 8.58541e-06 8.55763e-06 8.52537e-06 8.4881e-06 8.44528e-06 8.39634e-06 8.34068e-06 8.27772e-06 8.20688e-06 8.12757e-06 8.03927e-06 7.94145e-06 7.83366e-06 7.71551e-06 7.58667e-06 7.44691e-06 7.29611e-06 7.13424e-06 6.9614e-06 6.7778e-06 6.5838e-06 6.37989e-06 6.16668e-06 5.9449e-06 5.71543e-06 5.47924e-06 5.23741e-06 4.99109e-06 4.74152e-06 4.48998e-06 4.23778e-06 3.98623e-06 3.73666e-06 3.49034e-06 3.24851e-06 3.01232e-06 2.78285e-06 2.56108e-06 2.34786e-06 2.14395e-06 1.94995e-06 1.76636e-06 1.59351e-06 1.43164e-06 1.28084e-06 1.14109e-06 1.01225e-06 8.94094e-07 7.86306e-07 6.88487e-07 6.00181e-07 5.20878e-07 4.50032e-07 3.87074e-07 3.31416e-07 2.8247e-07 2.39651e-07 2.02387e-07 1.70128e-07 1.42346e-07 1.18546e-07 9.82629e-08 8.10674e-08 6.65655e-08 5.43991e-08 4.42452e-08 3.58152e-08 2.88528e-08 2.31325e-08 1.84572e-08 1.4656e-08 1.15814e-08 9.10752e-09 7.12737e-09 5.55064e-09 4.30168e-09 3.31749e-09 2.54597e-09 1.9443e-09 1.47753e-09 1.11727e-09 8.40646e-10 6.29324e-10 4.68689e-10 3.47165e-10 2.55629e-10 1.86929e-10 1.35475e-10 9.69092e-11 6.78289e-11 4.55587e-11 2.7962e-11 1.32813e-11 0 
0 1.89781e-11 3.99547e-11 6.50952e-11 9.69092e-11 1.38447e-10 1.93528e-10 2.67008e-10 3.65108e-10 4.95804e-10 6.69302e-10 8.98617e-10 1.20027e-09 1.59509e-09 2.10925e-09 2.77539e-09 3.63395e-09 4.73482e-09 6.13903e-09 7.92088e-09 1.01702e-08 1.29948e-08 1.65234e-08 2.09086e-08 2.63299e-08 3.29973e-08 4.11544e-08 5.10822e-08 6.31021e-08 7.7579e-08 9.49244e-08 1.15598e-07 1.40111e-07 1.69024e-07 2.02948e-07 2.42546e-07 2.88524e-07 3.41632e-07 4.02655e-07 4.72407e-07 5.5172e-07 6.41434e-07 7.42383e-07 8.55379e-07 9.81201e-07 1.12057e-06 1.27414e-06 1.44247e-06 1.62602e-06 1.82512e-06 2.03995e-06 2.27055e-06 2.51677e-06 2.7783e-06 3.05465e-06 3.34511e-06 3.64883e-06 3.96473e-06 4.29159e-06 4.62801e-06 4.97248e-06 5.32333e-06 5.67881e-06 6.0371e-06 6.39634e-06 6.75463e-06 7.11011e-06 7.46096e-06 7.80543e-06 8.14185e-06 8.46871e-06 8.78461e-06 9.08832e-06 9.37879e-06 9.65514e-06 9.91667e-06 1.01629e-05 1.03935e-05 1.06083e-05 1.08074e-05 1.0991e-05 1.11593e-05 1.13129e-05 1.14522e-05 1.15781e-05 1.16911e-05 1.1792e-05 1.18817e-05 1.1961e-05 1.20308e-05 1.20918e-05 1.21449e-05 1.21909e-05 1.22305e-05 1.22644e-05 1.22933e-05 1.23178e-05 1.23385e-05 1.23559e-05 1.23703e-05 1.23824e-05 1.23923e-05 1.24004e-05 1.24071e-05 1.24125e-05 1.24169e-05 1.24204e-05 1.24233e-05 1.24255e-05 1.24273e-05 1.24287e-05 1.24298e-05 1.24307e-05 1.24313e-05 1.24318e-05 1.24322e-05 1.24325e-05 1.24328e-05 1.24329e-05 1.24331e-05 1.24332e-05 1.24332e-05 1.24333e-05 1.24333e-05 1.24334e-05 1.24334e-05 1.24334e-05 1.24334e-05 1.24334e-05 1.24334e-05 1.24334e-05 1.24334e-05 1.24333e-05 1.24333e-05 1.24332e-05 1.24332e-05 1.24331e-05 1.24329e-05 1.24328e-05 1.24325e-05 1.24322e-05 1.24318e-05 1.24313e-05 1.24307e-05 1.24298e-05 1.24287e-05 1.24273e-05 1.24255e-05 1.24233e-05 1.24204e-05 1.24169e-05 1.24125e-05 1.24071e-05 1.24004e-05 1.23923e-05 1.23824e-05 1.23703e-05 1.23559e-05 1.23385e-05 1.23178e-05 1.22933e-05 1.22644e-05 1.22305e-05 1.21909e-05 1.21449e-05 1.20918e-05 1.20308e-05 1.1961e-05 1.18817e-05 1.1792e-05 1.16911e-05 1.15781e-05 1.14522e-05 1.13129e-05 1.11593e-05 1.0991e-05 1.08074e-05 1.06083e-05 1.03935e-05 1.01629e-05 9.91667e-06 9.65514e-06 9.37879e-06 9.08832e-06 8.78461e-06 8.46871e-06 8.14185e-06 7.80543e-06 7.46096e-06 7.11011e-06 6.75463e-06 6.39634e-06 6.0371e-06 5.67881e-06 5.32333e-06 4.97248e-06 4.62801e-06 4.29159e-06 3.96473e-06 3.64883e-06 3.34511e-06 3.05465e-06 2.7783e-06 2.51677e-06 2.27055e-06 2.03995e-06 1.82512e-06 1.62602e-06 1.44247e-06 1.27414e-06 1.12057e-06 9.81201e-07 8.55379e-07 7.42383e-07 6.41434e-07 5.5172e-07 4.72407e-07 4.02655e-07 3.41632e-07 2.88524e-07 2.42546e-07 2.02948e-07 1.69024e-07 1.40111e-07 1.15598e-07 9.49244e-08 7.7579e-08 6.31021e-08 5.10822e-08 4.11544e-08 3.29973e-08 2.63299e-08 2.09086e-08 1.65234e-08 1.29948e-08 1.01702e-08 7.92088e-09 6.13903e-09 4.73482e-09 3.63395e-09 2.77539e-09 2.10925e-09 1.59509e-09 1.20027e-09 8.98617e-10 6.69302e-10 4.95804e-10 3.65108e-10 2.67008e-10 1.93528e-10 1.38447e-10 9.69092e-11 6.50952e-11 3.99547e-11 1.89781e-11 0 
0 2.65347e-11 5.58618e-11 9.10066e-11 1.35475e-10 1.93528e-10 2.70498e-10 3.7317e-10 5.10227e-10 6.92806e-10 9.35155e-10 1.25544e-09 1.67672e-09 2.22807e-09 2.94601e-09 3.87608e-09 5.07472e-09 6.61149e-09 8.57158e-09 1.10586e-08 1.41978e-08 1.81397e-08 2.30637e-08 2.91825e-08 3.67466e-08 4.60486e-08 5.74282e-08 7.12771e-08 8.80433e-08 1.08236e-07 1.32427e-07 1.6126e-07 1.95444e-07 2.35762e-07 2.83066e-07 3.38278e-07 4.02383e-07 4.76425e-07 5.61499e-07 6.58738e-07 7.69302e-07 8.94358e-07 1.03507e-06 1.19257e-06 1.36794e-06 1.56218e-06 1.77622e-06 2.01082e-06 2.26661e-06 2.54407e-06 2.84345e-06 3.16479e-06 3.50789e-06 3.87233e-06 4.2574e-06 4.66214e-06 5.08533e-06 5.52549e-06 5.98093e-06 6.44969e-06 6.92964e-06 7.41849e-06 7.91379e-06 8.413e-06 8.91352e-06 9.41273e-06 9.90803e-06 1.03969e-05 1.08768e-05 1.13456e-05 1.1801e-05 1.22412e-05 1.26644e-05 1.30691e-05 1.34542e-05 1.38186e-05 1.41617e-05 1.44831e-05 1.47825e-05 1.50599e-05 1.53157e-05 1.55503e-05 1.57643e-05 1.59586e-05 1.6134e-05 1.62915e-05 1.64322e-05 1.65572e-05 1.66678e-05 1.6765e-05 1.68501e-05 1.69241e-05 1.69882e-05 1.70435e-05 1.70908e-05 1.71311e-05 1.71653e-05 1.71941e-05 1.72183e-05 1.72385e-05 1.72552e-05 1.72691e-05 1.72805e-05 1.72898e-05 1.72973e-05 1.73035e-05 1.73084e-05 1.73123e-05 1.73155e-05 1.7318e-05 1.73199e-05 1.73215e-05 1.73226e-05 1.73236e-05 1.73243e-05 1.73248e-05 1.73253e-05 1.73256e-05 1.73258e-05 1.7326e-05 1.73261e-05 1.73262e-05 1.73263e-05 1.73264e-05 1.73264e-05 1.73264e-05 1.73265e-05 1.73265e-05 1.73265e-05 1.73265e-05 1.73264e-05 1.73264e-05 1.73264e-05 1.73263e-05 1.73262e-05 1.73261e-05 1.7326e-05 1.73258e-05 1.73256e-05 1.73253e-05 1.73248e-05 1.73243e-05 1.73236e-05 1.73226e-05 1.73215e-05 1.73199e-05 1.7318e-05 1.73155e-05 1.73123e-05 1.73084e-05 1.73035e-05 1.72973e-05 1.72898e-05 1.72805e-05 1.72691e-05 1.72552e-05 1.72385e-05 1.72183e-05 1.71941e-05 1.71653e-05 1.71311e-05 1.70908e-05 1.70435e-05 1.69882e-05 1.69241e-05 1.68501e-05 1.6765e-05 1.66678e-05 1.65572e-05 1.64322e-05 1.62915e-05 1.6134e-05 1.59586e-05 1.57643e-05 1.55503e-05 1.53157e-05 1.50599e-05 1.47825e-05 1.44831e-05 1.41617e-05 1.38186e-05 1.34542e-05 1.30691e-05 1.26644e-05 1.22412e-05 1.1801e-05 1.13456e-05 1.08768e-05 1.03969e-05 9.90803e-06 9.41273e-06 8.91352e-06 8.413e-06 7.91379e-06 7.41849e-06 6.92964e-06 6.44969e-06 5.98093e-06 5.52549e-06 5.08533e-06 4.66214e-06 4.2574e-06 3.87233e-06 3.50789e-06 3.16479e-06 2.84345e-06 2.54407e-06 2.26661e-06 2.01082e-06 1.77622e-06 1.56218e-06 1.36794e-06 1.19257e-06 1.03507e-06 8.94358e-07 7.69302e-07 6.58738e-07 5.61499e-07 4.76425e-07 4.02383e-07 3.38278e-07 2.83066e-07 2.35762e-07 1.95444e-07 1.6126e-07 1.32427e-07 1.08236e-07 8.80433e-08 7.12771e-08 5.74282e-08 4.60486e-08 3.67466e-08 2.91825e-08 2.30637e-08 1.81397e-08 1.41978e-08 1.10586e-08 8.57158e-09 6.61149e-09 5.07472e-09 3.87608e-09 2.94601e-09 2.22807e-09 1.67672e-09 1.25544e-09 9.35155e-10 6.92806e-10 5.10227e-10 3.7317e-10 2.70498e-10 1.93528e-10 1.35475e-10 9.10066e-11 5.58618e-11 2.65347e-11 0 
0 3.66188e-11 7.70882e-11 1.2558e-10 1.86929e-10 2.67008e-10 3.7317e-10 5.14763e-10 7.03756e-10 9.55494e-10 1.28961e-09 1.73113e-09 2.31181e-09 3.07171e-09 4.06112e-09 5.34275e-09 6.99433e-09 9.11164e-09 1.18119e-08 1.52379e-08 1.95619e-08 2.49911e-08 3.17724e-08 4.01987e-08 5.06144e-08 6.34223e-08 7.90898e-08 9.81557e-08 1.21236e-07 1.49032e-07 1.8233e-07 2.22014e-07 2.69061e-07 3.24547e-07 3.89643e-07 4.65618e-07 5.53825e-07 6.55701e-07 7.7275e-07 9.06529e-07 1.05863e-06 1.23067e-06 1.42423e-06 1.64088e-06 1.8821e-06 2.14928e-06 2.44366e-06 2.76632e-06 3.11813e-06 3.49971e-06 3.91143e-06 4.35333e-06 4.82517e-06 5.32633e-06 5.85585e-06 6.4124e-06 6.99433e-06 7.59958e-06 8.22582e-06 8.87039e-06 9.53034e-06 1.02025e-05 1.08836e-05 1.157e-05 1.22582e-05 1.29446e-05 1.36257e-05 1.42978e-05 1.49578e-05 1.56023e-05 1.62286e-05 1.68338e-05 1.74158e-05 1.79723e-05 1.85018e-05 1.9003e-05 1.94748e-05 1.99167e-05 2.03285e-05 2.071e-05 2.10618e-05 2.13845e-05 2.16789e-05 2.19461e-05 2.21873e-05 2.24039e-05 2.25975e-05 2.27695e-05 2.29216e-05 2.30554e-05 2.31725e-05 2.32743e-05 2.33625e-05 2.34385e-05 2.35036e-05 2.35591e-05 2.36061e-05 2.36458e-05 2.36791e-05 2.37069e-05 2.373e-05 2.37491e-05 2.37647e-05 2.37775e-05 2.3788e-05 2.37964e-05 2.38032e-05 2.38086e-05 2.38129e-05 2.38164e-05 2.38191e-05 2.38212e-05 2.38228e-05 2.38241e-05 2.38251e-05 2.38259e-05 2.38264e-05 2.38269e-05 2.38272e-05 2.38275e-05 2.38276e-05 2.38278e-05 2.38279e-05 2.3828e-05 2.3828e-05 2.3828e-05 2.38281e-05 2.38281e-05 2.38281e-05 2.38281e-05 2.3828e-05 2.3828e-05 2.3828e-05 2.38279e-05 2.38278e-05 2.38276e-05 2.38275e-05 2.38272e-05 2.38269e-05 2.38264e-05 2.38259e-05 2.38251e-05 2.38241e-05 2.38228e-05 2.38212e-05 2.38191e-05 2.38164e-05 2.38129e-05 2.38086e-05 2.38032e-05 2.37964e-05 2.3788e-05 2.37775e-05 2.37647e-05 2.37491e-05 2.373e-05 2.37069e-05 2.36791e-05 2.36458e-05 2.36061e-05 2.35591e-05 2.35036e-05 2.34385e-05 2.33625e-05 2.32743e-05 2.31725e-05 2.30554e-05 2.29216e-05 2.27695e-05 2.25975e-05 2.24039e-05 2.21873e-05 2.19461e-05 2.16789e-05 2.13845e-05 2.10618e-05 2.071e-05 2.03285e-05 1.99167e-05 1.94748e-05 1.9003e-05 1.85018e-05 1.79723e-05 1.74158e-05 1.68338e-05 1.62286e-05 1.56023e-05 1.49578e-05 1.42978e-05 1.36257e-05 1.29446e-05 1.22582e-05 1.157e-05 1.08836e-05 1.02025e-05 9.53034e-06 8.87039e-06 8.22582e-06 7.59958e-06 6.99433e-06 6.4124e-06 5.85585e-06 5.32633e-06 4.82517e-06 4.35333e-06 3.91143e-06 3.49971e-06 3.11813e-06 2.76632e-06 2.44366e-06 2.14928e-06 1.8821e-06 1.64088e-06 1.42423e-06 1.23067e-06 1.05863e-06 9.06529e-07 7.7275e-07 6.55701e-07 5.53825e-07 4.65618e-07 3.89643e-07 3.24547e-07 2.69061e-07 2.22014e-07 1.8233e-07 1.49032e-07 1.21236e-07 9.81557e-08 7.90898e-08 6.34223e-08 5.06144e-08 4.01987e-08 3.17724e-08 2.49911e-08 1.95619e-08 1.52379e-08 1.18119e-08 9.11164e-09 6.99433e-09 5.34275e-09 4.06112e-09 3.07171e-09 2.31181e-09 1.73113e-09 1.28961e-09 9.55494e-10 7.03756e-10 5.14763e-10 3.7317e-10 2.67008e-10 1.86929e-10 1.2558e-10 7.70882e-11 3.66188e-11 0 
0 5.00853e-11 1.05434e-10 1.71746e-10 2.55629e-10 3.65108e-10 5.10227e-10 7.03756e-10 9.62043e-10 1.30604e-09 1.76256e-09 2.36577e-09 3.15902e-09 4.19702e-09 5.54838e-09 7.29869e-09 9.55404e-09 1.24451e-08 1.6132e-08 2.08091e-08 2.67119e-08 3.41227e-08 4.33785e-08 5.48785e-08 6.90926e-08 8.657e-08 1.07948e-07 1.33961e-07 1.6545e-07 2.03369e-07 2.48792e-07 3.02922e-07 3.67092e-07 4.42767e-07 5.31546e-07 6.35154e-07 7.55438e-07 8.94354e-07 1.05395e-06 1.23635e-06 1.44373e-06 1.67827e-06 1.94215e-06 2.23749e-06 2.56632e-06 2.93051e-06 3.33177e-06 3.77156e-06 4.25107e-06 4.77115e-06 5.33228e-06 5.93455e-06 6.57759e-06 7.26057e-06 7.98219e-06 8.74064e-06 9.53365e-06 1.03585e-05 1.12118e-05 1.20902e-05 1.29895e-05 1.39054e-05 1.48335e-05 1.57688e-05 1.67066e-05 1.7642e-05 1.857e-05 1.9486e-05 2.03853e-05 2.12636e-05 2.2117e-05 2.29418e-05 2.37348e-05 2.44933e-05 2.52149e-05 2.58979e-05 2.65409e-05 2.71432e-05 2.77043e-05 2.82244e-05 2.87039e-05 2.91437e-05 2.95449e-05 2.99091e-05 3.0238e-05 3.05333e-05 3.07972e-05 3.10317e-05 3.12391e-05 3.14215e-05 3.15811e-05 3.172e-05 3.18403e-05 3.19439e-05 3.20327e-05 3.21084e-05 3.21725e-05 3.22267e-05 3.22721e-05 3.231e-05 3.23415e-05 3.23675e-05 3.23889e-05 3.24064e-05 3.24206e-05 3.24321e-05 3.24413e-05 3.24487e-05 3.24546e-05 3.24593e-05 3.2463e-05 3.24659e-05 3.24682e-05 3.24699e-05 3.24713e-05 3.24723e-05 3.24731e-05 3.24737e-05 3.24741e-05 3.24745e-05 3.24747e-05 3.24749e-05 3.24751e-05 3.24752e-05 3.24752e-05 3.24753e-05 3.24753e-05 3.24753e-05 3.24753e-05 3.24753e-05 3.24753e-05 3.24752e-05 3.24752e-05 3.24751e-05 3.24749e-05 3.24747e-05 3.24745e-05 3.24741e-05 3.24737e-05 3.24731e-05 3.24723e-05 3.24713e-05 3.24699e-05 3.24682e-05 3.24659e-05 3.2463e-05 3.24593e-05 3.24546e-05 3.24487e-05 3.24413e-05 3.24321e-05 3.24206e-05 3.24064e-05 3.23889e-05 3.23675e-05 3.23415e-05 3.231e-05 3.22721e-05 3.22267e-05 3.21725e-05 3.21084e-05 3.20327e-05 3.19439e-05 3.18403e-05 3.172e-05 3.15811e-05 3.14215e-05 3.12391e-05 3.10317e-05 3.07972e-05 3.05333e-05 3.0238e-05 2.99091e-05 2.95449e-05 2.91437e-05 2.87039e-05 2.82244e-05 2.77043e-05 2.71432e-05 2.65409e-05 2.58979e-05 2.52149e-05 2.44933e-05 2.37348e-05 2.29418e-05 2.2117e-05 2.12636e-05 2.03853e-05 1.9486e-05 1.857e-05 1.7642e-05 1.67066e-05 1.57688e-05 1.48335e-05 1.39054e-05 1.29895e-05 1.20902e-05 1.12118e-05 1.03585e-05 9.53365e-06 8.74064e-06 7.98219e-06 7.26057e-06 6.57759e-06 5.93455e-06 5.33228e-06 4.77115e-06 4.25107e-06 3.77156e-06 3.33177e-06 2.93051e-06 2.56632e-06 2.23749e-06 1.94215e-06 1.67827e-06 1.44373e-06 1.23635e-06 1.05395e-06 8.94354e-07 7.55438e-07 6.35154e-07 5.31546e-07 4.42767e-07 3.67092e-07 3.02922e-07 2.48792e-07 2.03369e-07 1.6545e-07 1.33961e-07 1.07948e-07 8.657e-08 6.90926e-08 5.48785e-08 4.33785e-08 3.41227e-08 2.67119e-08 2.08091e-08 1.6132e-08 1.24451e-08 9.55404e-09 7.29869e-09 5.54838e-09 4.19702e-09 3.15902e-09 2.36577e-09 1.76256e-09 1.30604e-09 9.62043e-10 7.03756e-10 5.10227e-10 3.65108e-10 2.55629e-10 1.71746e-10 1.05434e-10 5.00853e-11 0 
0 6.80313e-11 1.43206e-10 2.33263e-10 3.47165e-10 4.95804e-10 6.92805e-10 9.55494e-10 1.30604e-09 1.77287e-09 2.39232e-09 3.21074e-09 4.2869e-09 5.69495e-09 7.52791e-09 9.90179e-09 1.29603e-08 1.68807e-08 2.18796e-08 2.82209e-08 3.62231e-08 4.62688e-08 5.88146e-08 7.44011e-08 9.36647e-08 1.17349e-07 1.46317e-07 1.81564e-07 2.24227e-07 2.75598e-07 3.37132e-07 4.10457e-07 4.97376e-07 5.99873e-07 7.20112e-07 8.60427e-07 1.02332e-06 1.21143e-06 1.42754e-06 1.67451e-06 1.95529e-06 2.27283e-06 2.63008e-06 3.02991e-06 3.47505e-06 3.96805e-06 4.51121e-06 5.10651e-06 5.75554e-06 6.45947e-06 7.21895e-06 8.03408e-06 8.90437e-06 9.82871e-06 1.08053e-05 1.18318e-05 1.29049e-05 1.40211e-05 1.5176e-05 1.63646e-05 1.75816e-05 1.88211e-05 2.00769e-05 2.13427e-05 2.26117e-05 2.38775e-05 2.51333e-05 2.63728e-05 2.75898e-05 2.87784e-05 2.99333e-05 3.10495e-05 3.21227e-05 3.31491e-05 3.41257e-05 3.505e-05 3.59203e-05 3.67355e-05 3.74949e-05 3.81989e-05 3.88479e-05 3.94432e-05 3.99864e-05 4.04794e-05 4.09245e-05 4.13243e-05 4.16816e-05 4.19991e-05 4.22799e-05 4.25269e-05 4.2743e-05 4.29311e-05 4.3094e-05 4.32343e-05 4.33545e-05 4.3457e-05 4.3544e-05 4.36173e-05 4.36788e-05 4.37302e-05 4.37728e-05 4.38081e-05 4.38371e-05 4.38607e-05 4.388e-05 4.38956e-05 4.39081e-05 4.39182e-05 4.39262e-05 4.39325e-05 4.39375e-05 4.39415e-05 4.39445e-05 4.39469e-05 4.39487e-05 4.39501e-05 4.39512e-05 4.3952e-05 4.39526e-05 4.39531e-05 4.39534e-05 4.39537e-05 4.39539e-05 4.3954e-05 4.39541e-05 4.39542e-05 4.39542e-05 4.39542e-05 4.39542e-05 4.39542e-05 4.39542e-05 4.39541e-05 4.3954e-05 4.39539e-05 4.39537e-05 4.39534e-05 4.39531e-05 4.39526e-05 4.3952e-05 4.39512e-05 4.39501e-05 4.39487e-05 4.39469e-05 4.39445e-05 4.39415e-05 4.39375e-05 4.39325e-05 4.39262e-05 4.39182e-05 4.39081e-05 4.38956e-05 4.388e-05 4.38607e-05 4.38371e-05 4.38081e-05 4.37728e-05 4.37302e-05 4.36788e-05 4.36173e-05 4.3544e-05 4.3457e-05 4.33545e-05 4.32343e-05 4.3094e-05 4.29311e-05 4.2743e-05 4.25269e-05 4.22799e-05 4.19991e-05 4.16816e-05 4.13243e-05 4.09245e-05 4.04794e-05 3.99864e-05 3.94432e-05 3.88479e-05 3.81989e-05 3.74949e-05 3.67355e-05 3.59203e-05 3.505e-05 3.41257e-05 3.31491e-05 3.21227e-05 3.10495e-05 2.99333e-05 2.87784e-05 2.75898e-05 2.63728e-05 2.51333e-05 2.38775e-05 2.26117e-05 2.13427e-05 2.00769e-05 1.88211e-05 1.75816e-05 1.63646e-05 1.5176e-05 1.40211e-05 1.29049e-05 1.18318e-05 1.08053e-05 9.82871e-06 8.90437e-06 8.03408e-06 7.21895e-06 6.45947e-06 5.75554e-06 5.10651e-06 4.51121e-06 3.96805e-06 3.47505e-06 3.02991e-06 2.63008e-06 2.27283e-06 1.95529e-06 1.67451e-06 1.42754e-06 1.21143e-06 1.02332e-06 8.60427e-07 7.20112e-07 5.99873e-07 4.97376e-07 4.10457e-07 3.37132e-07 2.75598e-07 2.24227e-07 1.81564e-07 1.46317e-07 1.17349e-07 9.36647e-08 7.44011e-08 5.88146e-08 4.62688e-08 3.62231e-08 2.82209e-08 2.18796e-08 1.68807e-08 1.29603e-08 9.90179e-09 7.52791e-09 5.69495e-09 4.2869e-09 3.21074e-09 2.39232e-09 1.77287e-09 1.30604e-09 9.55494e-10 6.92805e-10 4.95804e-10 3.47165e-10 2.33263e-10 1.43206e-10 6.80313e-11 0 