<?xml version="1.0"?>
<VTKFile type="ImageData" version="0.1" byte_order="LittleEndian">
  <ImageData WholeExtent="0 255 0 255 0 0" Origin="0 0 0" Spacing="1 1 1">
  <Piece Extent="0 255 0 255 0 0">
    <PointData>
      <DataArray type="Float32" Name="scalar_data" format="ascii" >0 0 0 0 0 0 0 0 0 0 0 0 0 0 0 0 0 0 0 0 0 0 0 0 0 0 0 0 0 0 0 0 0 0 0 0 0 0 0 0 0 0 0 0 0 0 0 0 0 0 0 0 0 0 0 0 0 0 0 0 0 0 0 0 0 0 0 0 0 0 0 0 0 0 0 0 0 0 0 0 0 0 0 0 0 0 0 0 0 0 0 0 0 0 0 0 0 0 0 0 0 0 0 0 0 0 0 0 0 0 0 0 0 0 0 0 0 0 0 0 0 0 0 0 0 0 0 0 0 0 0 0 0 0 0 0 0 0 0 0 0 0 0 0 0 0 0 0 0 0 0 0 0 0 0 0 0 0 0 0 0 0 0 0 0 0 0 0 0 0 0 0 0 0 0 0 0 0 0 0 0 0 0 0 0 0 0 0 0 0 0 0 0 0 0 0 0 0 0 0 0 0 0 0 0 0 0 0 0 0 0 0 0 0 0 0 0 0 0 0 0 0 0 0 0 0 0 0 0 0 0 0 0 0 0 0 0 0 0 0 0 0 0 0 0 0 0 0 0 0 0 0 0 0 0 0 
0 3.15939e-11 6.57082e-11 1.05016e-10 1.52504e-10 2.11641e-10 2.86569e-10 3.82316e-10 5.0504e-10 6.6231e-10 8.63429e-10 1.11981e-09 1.44542e-09 1.85723e-09 2.37585e-09 3.02609e-09 3.8377e-09 4.84619e-09 6.09364e-09 7.62968e-09 9.51248e-09 1.18098e-08 1.46003e-08 1.79742e-08 2.2035e-08 2.69004e-08 3.27032e-08 3.95924e-08 4.77343e-08 5.73126e-08 6.85296e-08 8.16057e-08 9.67796e-08 1.14307e-07 1.34462e-07 1.57531e-07 1.83816e-07 2.13629e-07 2.47288e-07 2.85116e-07 3.27437e-07 3.74566e-07 4.26811e-07 4.84463e-07 5.47791e-07 6.17036e-07 6.92405e-07 7.74064e-07 8.62135e-07 9.56688e-07 1.05773e-06 1.16523e-06 1.27906e-06 1.39905e-06 1.52495e-06 1.65645e-06 1.79317e-06 1.93468e-06 2.08046e-06 2.22996e-06 2.38258e-06 2.53767e-06 2.69454e-06 2.85249e-06 3.01081e-06 3.16876e-06 3.32563e-06 3.48072e-06 3.63334e-06 3.78284e-06 3.92862e-06 4.07013e-06 4.20685e-06 4.33836e-06 4.46426e-06 4.58424e-06 4.69807e-06 4.80557e-06 4.90661e-06 5.00117e-06 5.08924e-06 5.1709e-06 5.24627e-06 5.31551e-06 5.37884e-06 5.43649e-06 5.48874e-06 5.53587e-06 5.57819e-06 5.61601e-06 5.64967e-06 5.67949e-06 5.70577e-06 5.72884e-06 5.74899e-06 5.76652e-06 5.7817e-06 5.79477e-06 5.80599e-06 5.81557e-06 5.82371e-06 5.8306e-06 5.8364e-06 5.84127e-06 5.84533e-06 5.8487e-06 5.85149e-06 5.85379e-06 5.85567e-06 5.85721e-06 5.85846e-06 5.85946e-06 5.86027e-06 5.86092e-06 5.86144e-06 5.86185e-06 5.86218e-06 5.86243e-06 5.86263e-06 5.86279e-06 5.86291e-06 5.863e-06 5.86307e-06 5.86312e-06 5.86316e-06 5.86319e-06 5.8632e-06 5.86321e-06 5.86321e-06 5.8632e-06 5.86319e-06 5.86316e-06 5.86312e-06 5.86307e-06 5.863e-06 5.86291e-06 5.86279e-06 5.86263e-06 5.86243e-06 5.86218e-06 5.86185e-06 5.86144e-06 5.86092e-06 5.86027e-06 5.85946e-06 5.85846e-06 5.85721e-06 5.85567e-06 5.85379e-06 5.85149e-06 5.8487e-06 5.84533e-06 5.84127e-06 5.8364e-06 5.8306e-06 5.82371e-06 5.81557e-06 5.80599e-06 5.79477e-06 5.7817e-06 5.76652e-06 5.74899e-06 5.72884e-06 5.70577e-06 5.67949e-06 5.64967e-06 5.61601e-06 5.57819e-06 5.53587e-06 5.48874e-06 5.43649e-06 5.37884e-06 5.31551e-06 5.24627e-06 5.1709e-06 5.08924e-06 5.00117e-06 4.90661e-06 4.80557e-06 4.69807e-06 4.58424e-06 4.46426e-06 4.33836e-06 4.20685e-06 4.07013e-06 3.92862e-06 3.78284e-06 3.63334e-06 3.48072e-06 3.32563e-06 3.16876e-06 3.01081e-06 2.85249e-06 2.69454e-06 2.53767e-06 2.38258e-06 2.22996e-06 2.08046e-06 1.93468e-06 1.79317e-06 1.65645e-06 1.52495e-06 1.39905e-06 1.27906e-06 1.16523e-06 1.05773e-06 9.56688e-07 8.62135e-07 7.74064e-07 6.92405e-07 6.17036e-07 5.47791e-07 4.84463e-07 4.26811e-07 3.74566e-07 3.27437e-07 2.85116e-07 2.47288e-07 2.13629e-07 1.83816e-07 1.57531e-07 1.34462e-07 1.14307e-07 9.67796e-08 8.16057e-08 6.85296e-08 5.73126e-08 4.77343e-08 3.95924e-08 3.27032e-08 2.69004e-08 2.2035e-08 1.79742e-08 1.46003e-08 1.18098e-08 9.51248e-09 7.62968e-09 6.09364e-09 4.84619e-09 3.8377e-09 3.02609e-09 2.37585e-09 1.85723e-09 1.44542e-09 1.11981e-09 8.63429e-10 6.6231e-10 5.0504e-10 3.82316e-10 2.86569e-10 2.11641e-10 1.52504e-10 1.05016e-10 6.57082e-11 3.15939e-11 0 
0 6.57082e-11 1.36657e-10 2.18406e-10 3.17163e-10 4.40143e-10 5.95957e-10 7.95059e-10 1.05025e-09 1.37727e-09 1.79546e-09 2.32855e-09 3.00556e-09 3.86179e-09 4.94007e-09 6.29196e-09 7.97935e-09 1.0076e-08 1.26694e-08 1.58627e-08 1.97769e-08 2.45528e-08 3.03536e-08 3.73672e-08 4.58087e-08 5.59225e-08 6.79847e-08 8.2305e-08 9.92289e-08 1.19138e-07 1.42454e-07 1.69633e-07 2.01172e-07 2.37603e-07 2.79494e-07 3.27442e-07 3.82073e-07 4.44035e-07 5.13991e-07 5.92612e-07 6.80567e-07 7.78516e-07 8.87097e-07 1.00691e-06 1.13852e-06 1.28243e-06 1.43906e-06 1.60877e-06 1.7918e-06 1.9883e-06 2.19829e-06 2.42168e-06 2.65823e-06 2.90758e-06 3.16922e-06 3.4425e-06 3.72663e-06 4.02069e-06 4.32364e-06 4.63432e-06 4.95147e-06 5.27376e-06 5.59975e-06 5.92799e-06 6.25699e-06 6.58523e-06 6.91122e-06 7.2335e-06 7.55066e-06 7.86134e-06 8.16429e-06 8.45835e-06 8.74248e-06 9.01576e-06 9.2774e-06 9.52675e-06 9.7633e-06 9.98669e-06 1.01967e-05 1.03932e-05 1.05762e-05 1.07459e-05 1.09025e-05 1.10465e-05 1.11781e-05 1.12979e-05 1.14065e-05 1.15044e-05 1.15924e-05 1.1671e-05 1.17409e-05 1.18029e-05 1.18575e-05 1.19055e-05 1.19474e-05 1.19838e-05 1.20153e-05 1.20425e-05 1.20658e-05 1.20857e-05 1.21027e-05 1.2117e-05 1.21291e-05 1.21392e-05 1.21476e-05 1.21546e-05 1.21604e-05 1.21652e-05 1.21691e-05 1.21723e-05 1.21749e-05 1.2177e-05 1.21787e-05 1.218e-05 1.21811e-05 1.2182e-05 1.21826e-05 1.21832e-05 1.21836e-05 1.21839e-05 1.21842e-05 1.21844e-05 1.21845e-05 1.21846e-05 1.21847e-05 1.21847e-05 1.21848e-05 1.21848e-05 1.21848e-05 1.21848e-05 1.21847e-05 1.21847e-05 1.21846e-05 1.21845e-05 1.21844e-05 1.21842e-05 1.21839e-05 1.21836e-05 1.21832e-05 1.21826e-05 1.2182e-05 1.21811e-05 1.218e-05 1.21787e-05 1.2177e-05 1.21749e-05 1.21723e-05 1.21691e-05 1.21652e-05 1.21604e-05 1.21546e-05 1.21476e-05 1.21392e-05 1.21291e-05 1.2117e-05 1.21027e-05 1.20857e-05 1.20658e-05 1.20425e-05 1.20153e-05 1.19838e-05 1.19474e-05 1.19055e-05 1.18575e-05 1.18029e-05 1.17409e-05 1.1671e-05 1.15924e-05 1.15044e-05 1.14065e-05 1.12979e-05 1.11781e-05 1.10465e-05 1.09025e-05 1.07459e-05 1.05762e-05 1.03932e-05 1.01967e-05 9.98669e-06 9.7633e-06 9.52675e-06 9.2774e-06 9.01576e-06 8.74248e-06 8.45835e-06 8.16429e-06 7.86134e-06 7.55066e-06 7.2335e-06 6.91122e-06 6.58523e-06 6.25699e-06 5.92799e-06 5.59975e-06 5.27376e-06 4.95147e-06 4.63432e-06 4.32364e-06 4.02069e-06 3.72663e-06 3.4425e-06 3.16922e-06 2.90758e-06 2.65823e-06 2.42168e-06 2.19829e-06 1.9883e-06 1.7918e-06 1.60877e-06 1.43906e-06 1.28243e-06 1.13852e-06 1.00691e-06 8.87097e-07 7.78516e-07 6.80567e-07 5.92612e-07 5.13991e-07 4.44035e-07 3.82073e-07 3.27442e-07 2.79494e-07 2.37603e-07 2.01172e-07 1.69633e-07 1.42454e-07 1.19138e-07 9.92289e-08 8.2305e-08 6.79847e-08 5.59225e-08 4.58087e-08 3.73672e-08 3.03536e-08 2.45528e-08 1.97769e-08 1.58627e-08 1.26694e-08 1.0076e-08 7.97935e-09 6.29196e-09 4.94007e-09 3.86179e-09 3.00556e-09 2.32855e-09 1.79546e-09 1.37727e-09 1.05025e-09 7.95059e-10 5.95957e-10 4.40143e-10 3.17163e-10 2.18406e-10 1.36657e-10 6.57082e-11 0 
0 1.05016e-10 2.18406e-10 3.49051e-10 5.06871e-10 7.03391e-10 9.52368e-10 1.2705e-09 1.67825e-09 2.20073e-09 2.86886e-09 3.72052e-09 4.80207e-09 6.1699e-09 7.89238e-09 1.00519e-08 1.27472e-08 1.60962e-08 2.02385e-08 2.53389e-08 3.15904e-08 3.9218e-08 4.84822e-08 5.96832e-08 7.31642e-08 8.93153e-08 1.08577e-07 1.31445e-07 1.58469e-07 1.90261e-07 2.2749e-07 2.70887e-07 3.21245e-07 3.79413e-07 4.46297e-07 5.2285e-07 6.10073e-07 7.08998e-07 8.20683e-07 9.462e-07 1.08662e-06 1.24299e-06 1.41633e-06 1.6076e-06 1.8177e-06 2.04743e-06 2.29747e-06 2.56837e-06 2.86054e-06 3.1742e-06 3.5094e-06 3.86599e-06 4.24359e-06 4.64161e-06 5.05924e-06 5.49545e-06 5.94898e-06 6.41836e-06 6.90192e-06 7.39783e-06 7.90406e-06 8.41847e-06 8.93881e-06 9.46274e-06 9.98787e-06 1.05118e-05 1.10321e-05 1.15466e-05 1.20528e-05 1.25487e-05 1.30323e-05 1.35016e-05 1.39552e-05 1.43914e-05 1.4809e-05 1.5207e-05 1.55846e-05 1.59412e-05 1.62764e-05 1.65901e-05 1.68822e-05 1.71532e-05 1.74032e-05 1.76329e-05 1.7843e-05 1.80343e-05 1.82076e-05 1.8364e-05 1.85044e-05 1.86299e-05 1.87416e-05 1.88405e-05 1.89278e-05 1.90043e-05 1.90712e-05 1.91294e-05 1.91797e-05 1.92231e-05 1.92604e-05 1.92921e-05 1.93192e-05 1.9342e-05 1.93613e-05 1.93775e-05 1.93909e-05 1.94021e-05 1.94114e-05 1.9419e-05 1.94253e-05 1.94304e-05 1.94345e-05 1.94379e-05 1.94406e-05 1.94427e-05 1.94444e-05 1.94458e-05 1.94469e-05 1.94477e-05 1.94484e-05 1.94489e-05 1.94493e-05 1.94496e-05 1.94499e-05 1.945e-05 1.94502e-05 1.94502e-05 1.94503e-05 1.94503e-05 1.94503e-05 1.94503e-05 1.94502e-05 1.94502e-05 1.945e-05 1.94499e-05 1.94496e-05 1.94493e-05 1.94489e-05 1.94484e-05 1.94477e-05 1.94469e-05 1.94458e-05 1.94444e-05 1.94427e-05 1.94406e-05 1.94379e-05 1.94345e-05 1.94304e-05 1.94253e-05 1.9419e-05 1.94114e-05 1.94021e-05 1.93909e-05 1.93775e-05 1.93613e-05 1.9342e-05 1.93192e-05 1.92921e-05 1.92604e-05 1.92231e-05 1.91797e-05 1.91294e-05 1.90712e-05 1.90043e-05 1.89278e-05 1.88405e-05 1.87416e-05 1.86299e-05 1.85044e-05 1.8364e-05 1.82076e-05 1.80343e-05 1.7843e-05 1.76329e-05 1.74032e-05 1.71532e-05 1.68822e-05 1.65901e-05 1.62764e-05 1.59412e-05 1.55846e-05 1.5207e-05 1.4809e-05 1.43914e-05 1.39552e-05 1.35016e-05 1.30323e-05 1.25487e-05 1.20528e-05 1.15466e-05 1.10321e-05 1.05118e-05 9.98787e-06 9.46274e-06 8.93881e-06 8.41847e-06 7.90406e-06 7.39783e-06 6.90192e-06 6.41836e-06 5.94898e-06 5.49545e-06 5.05924e-06 4.64161e-06 4.24359e-06 3.86599e-06 3.5094e-06 3.1742e-06 2.86054e-06 2.56837e-06 2.29747e-06 2.04743e-06 1.8177e-06 1.6076e-06 1.41633e-06 1.24299e-06 1.08662e-06 9.462e-07 8.20683e-07 7.08998e-07 6.10073e-07 5.2285e-07 4.46297e-07 3.79413e-07 3.21245e-07 2.70887e-07 2.2749e-07 1.90261e-07 1.58469e-07 1.31445e-07 1.08577e-07 8.93153e-08 7.31642e-08 5.96832e-08 4.84822e-08 3.9218e-08 3.15904e-08 2.53389e-08 2.02385e-08 1.60962e-08 1.27472e-08 1.00519e-08 7.89238e-09 6.1699e-09 4.80207e-09 3.72052e-09 2.86886e-09 2.20073e-09 1.67825e-09 1.2705e-09 9.52368e-10 7.03391e-10 5.06871e-10 3.49051e-10 2.18406e-10 1.05016e-10 0 
0 1.52504e-10 3.17163e-10 5.06871e-10 7.36026e-10 1.02136e-09 1.38283e-09 1.84468e-09 2.43659e-09 3.19502e-09 4.16483e-09 5.40099e-09 6.97074e-09 8.95592e-09 1.14557e-08 1.45896e-08 1.8501e-08 2.33606e-08 2.93713e-08 3.67718e-08 4.58423e-08 5.6909e-08 7.03498e-08 8.65999e-08 1.06157e-07 1.29587e-07 1.57529e-07 1.90701e-07 2.29901e-07 2.76014e-07 3.30013e-07 3.92958e-07 4.65996e-07 5.50359e-07 6.4736e-07 7.58384e-07 8.84876e-07 1.02834e-06 1.1903e-06 1.37232e-06 1.57594e-06 1.80268e-06 2.05404e-06 2.33139e-06 2.63603e-06 2.96913e-06 3.33168e-06 3.72447e-06 4.14809e-06 4.60287e-06 5.08887e-06 5.60587e-06 6.15333e-06 6.73039e-06 7.33588e-06 7.9683e-06 8.62582e-06 9.30633e-06 1.00074e-05 1.07263e-05 1.14603e-05 1.2206e-05 1.29604e-05 1.372e-05 1.44813e-05 1.52409e-05 1.59952e-05 1.6741e-05 1.74749e-05 1.81939e-05 1.8895e-05 1.95755e-05 2.0233e-05 2.08654e-05 2.14709e-05 2.2048e-05 2.25954e-05 2.31124e-05 2.35984e-05 2.40532e-05 2.44768e-05 2.48696e-05 2.52322e-05 2.55653e-05 2.58699e-05 2.61472e-05 2.63986e-05 2.66253e-05 2.6829e-05 2.7011e-05 2.71729e-05 2.73164e-05 2.74429e-05 2.75539e-05 2.76509e-05 2.77353e-05 2.78083e-05 2.78713e-05 2.79253e-05 2.79714e-05 2.80106e-05 2.80438e-05 2.80717e-05 2.80951e-05 2.81147e-05 2.81309e-05 2.81444e-05 2.81554e-05 2.81645e-05 2.81719e-05 2.81779e-05 2.81828e-05 2.81867e-05 2.81898e-05 2.81923e-05 2.81943e-05 2.81959e-05 2.81971e-05 2.81981e-05 2.81988e-05 2.81994e-05 2.81998e-05 2.82002e-05 2.82004e-05 2.82006e-05 2.82007e-05 2.82008e-05 2.82009e-05 2.82009e-05 2.82008e-05 2.82007e-05 2.82006e-05 2.82004e-05 2.82002e-05 2.81998e-05 2.81994e-05 2.81988e-05 2.81981e-05 2.81971e-05 2.81959e-05 2.81943e-05 2.81923e-05 2.81898e-05 2.81867e-05 2.81828e-05 2.81779e-05 2.81719e-05 2.81645e-05 2.81554e-05 2.81444e-05 2.81309e-05 2.81147e-05 2.80951e-05 2.80717e-05 2.80438e-05 2.80106e-05 2.79714e-05 2.79253e-05 2.78713e-05 2.78083e-05 2.77353e-05 2.76509e-05 2.75539e-05 2.74429e-05 2.73164e-05 2.71729e-05 2.7011e-05 2.6829e-05 2.66253e-05 2.63986e-05 2.61472e-05 2.58699e-05 2.55653e-05 2.52322e-05 2.48696e-05 2.44768e-05 2.40532e-05 2.35984e-05 2.31124e-05 2.25954e-05 2.2048e-05 2.14709e-05 2.08654e-05 2.0233e-05 1.95755e-05 1.8895e-05 1.81939e-05 1.74749e-05 1.6741e-05 1.59952e-05 1.52409e-05 1.44813e-05 1.372e-05 1.29604e-05 1.2206e-05 1.14603e-05 1.07263e-05 1.00074e-05 9.30633e-06 8.62582e-06 7.9683e-06 7.33588e-06 6.73039e-06 6.15333e-06 5.60587e-06 5.08887e-06 4.60287e-06 4.14809e-06 3.72447e-06 3.33168e-06 2.96913e-06 2.63603e-06 2.33139e-06 2.05404e-06 1.80268e-06 1.57594e-06 1.37232e-06 1.1903e-06 1.02834e-06 8.84876e-07 7.58384e-07 6.4736e-07 5.50359e-07 4.65996e-07 3.92958e-07 3.30013e-07 2.76014e-07 2.29901e-07 1.90701e-07 1.57529e-07 1.29587e-07 1.06157e-07 8.65999e-08 7.03498e-08 5.6909e-08 4.58423e-08 3.67718e-08 2.93713e-08 2.33606e-08 1.8501e-08 1.45896e-08 1.14557e-08 8.95592e-09 6.97074e-09 5.40099e-09 4.16483e-09 3.19502e-09 2.43659e-09 1.84468e-09 1.38283e-09 1.02136e-09 7.36026e-10 5.06871e-10 3.17163e-10 1.52504e-10 0 
0 2.11641e-10 4.40143e-10 7.03391e-10 1.02136e-09 1.41724e-09 1.91873e-09 2.55944e-09 3.38052e-09 4.43255e-09 5.77769e-09 7.49218e-09 9.66922e-09 1.24223e-08 1.58888e-08 2.02345e-08 2.56579e-08 3.23961e-08 4.07297e-08 5.09898e-08 6.35646e-08 7.89062e-08 9.75383e-08 1.20064e-07 1.47172e-07 1.79648e-07 2.18376e-07 2.6435e-07 3.18678e-07 3.82585e-07 4.57417e-07 5.44644e-07 6.45855e-07 7.62756e-07 8.97164e-07 1.051e-06 1.22626e-06 1.42503e-06 1.64943e-06 1.9016e-06 2.1837e-06 2.49784e-06 2.84605e-06 3.23027e-06 3.6523e-06 4.11373e-06 4.61594e-06 5.16005e-06 5.74685e-06 6.3768e-06 7.05e-06 7.76611e-06 8.52441e-06 9.32371e-06 1.01624e-05 1.10383e-05 1.1949e-05 1.28916e-05 1.38626e-05 1.48584e-05 1.58749e-05 1.69078e-05 1.79526e-05 1.90047e-05 2.00591e-05 2.11111e-05 2.2156e-05 2.31889e-05 2.42054e-05 2.52012e-05 2.61722e-05 2.71147e-05 2.80255e-05 2.89014e-05 2.97401e-05 3.05394e-05 3.12977e-05 3.20138e-05 3.2687e-05 3.33169e-05 3.39037e-05 3.44478e-05 3.49501e-05 3.54115e-05 3.58335e-05 3.62177e-05 3.6566e-05 3.68801e-05 3.71622e-05 3.74144e-05 3.76388e-05 3.78375e-05 3.80128e-05 3.81666e-05 3.8301e-05 3.84179e-05 3.85191e-05 3.86064e-05 3.86812e-05 3.87451e-05 3.87994e-05 3.88454e-05 3.88841e-05 3.89166e-05 3.89437e-05 3.89662e-05 3.89849e-05 3.90002e-05 3.90128e-05 3.90231e-05 3.90314e-05 3.90381e-05 3.90436e-05 3.90479e-05 3.90514e-05 3.90541e-05 3.90563e-05 3.9058e-05 3.90593e-05 3.90604e-05 3.90612e-05 3.90618e-05 3.90622e-05 3.90626e-05 3.90628e-05 3.9063e-05 3.90631e-05 3.90632e-05 3.90632e-05 3.90631e-05 3.9063e-05 3.90628e-05 3.90626e-05 3.90622e-05 3.90618e-05 3.90612e-05 3.90604e-05 3.90593e-05 3.9058e-05 3.90563e-05 3.90541e-05 3.90514e-05 3.90479e-05 3.90436e-05 3.90381e-05 3.90314e-05 3.90231e-05 3.90128e-05 3.90002e-05 3.89849e-05 3.89662e-05 3.89437e-05 3.89166e-05 3.88841e-05 3.88454e-05 3.87994e-05 3.87451e-05 3.86812e-05 3.86064e-05 3.85191e-05 3.84179e-05 3.8301e-05 3.81666e-05 3.80128e-05 3.78375e-05 3.76388e-05 3.74144e-05 3.71622e-05 3.68801e-05 3.6566e-05 3.62177e-05 3.58335e-05 3.54115e-05 3.49501e-05 3.44478e-05 3.39037e-05 3.33169e-05 3.2687e-05 3.20138e-05 3.12977e-05 3.05394e-05 2.97401e-05 2.89014e-05 2.80255e-05 2.71147e-05 2.61722e-05 2.52012e-05 2.42054e-05 2.31889e-05 2.2156e-05 2.11111e-05 2.00591e-05 1.90047e-05 1.79526e-05 1.69078e-05 1.58749e-05 1.48584e-05 1.38626e-05 1.28916e-05 1.1949e-05 1.10383e-05 1.01624e-05 9.32371e-06 8.52441e-06 7.76611e-06 7.05e-06 6.3768e-06 5.74685e-06 5.16005e-06 4.61594e-06 4.11373e-06 3.6523e-06 3.23027e-06 2.84605e-06 2.49784e-06 2.1837e-06 1.9016e-06 1.64943e-06 1.42503e-06 1.22626e-06 1.051e-06 8.97164e-07 7.62756e-07 6.45855e-07 5.44644e-07 4.57417e-07 3.82585e-07 3.18678e-07 2.6435e-07 2.18376e-07 1.79648e-07 1.47172e-07 1.20064e-07 9.75383e-08 7.89062e-08 6.35646e-08 5.09898e-08 4.07297e-08 3.23961e-08 2.56579e-08 2.02345e-08 1.58888e-08 1.24223e-08 9.66922e-09 7.49218e-09 5.77769e-09 4.43255e-09 3.38052e-09 2.55944e-09 1.91873e-09 1.41724e-09 1.02136e-09 7.03391e-10 4.40143e-10 2.11641e-10 0 
0 2.86569e-10 5.95957e-10 9.52368e-10 1.38283e-09 1.91873e-09 2.59754e-09 3.46474e-09 4.57599e-09 5.99971e-09 7.81998e-09 1.01399e-08 1.30856e-08 1.68104e-08 2.15003e-08 2.73793e-08 3.4716e-08 4.38306e-08 5.51028e-08 6.89803e-08 8.59876e-08 1.06736e-07 1.31933e-07 1.62395e-07 1.99052e-07 2.42965e-07 2.9533e-07 3.57491e-07 4.30944e-07 5.17344e-07 6.18511e-07 7.3643e-07 8.73248e-07 1.03127e-06 1.21296e-06 1.42089e-06 1.65778e-06 1.92644e-06 2.22973e-06 2.57055e-06 2.9518e-06 3.37634e-06 3.84693e-06 4.36616e-06 4.93647e-06 5.56002e-06 6.23866e-06 6.9739e-06 7.76682e-06 8.61803e-06 9.52766e-06 1.04953e-05 1.15199e-05 1.25998e-05 1.3733e-05 1.49165e-05 1.6147e-05 1.74205e-05 1.87324e-05 2.00778e-05 2.14512e-05 2.28467e-05 2.42584e-05 2.56797e-05 2.71044e-05 2.85257e-05 2.99373e-05 3.13329e-05 3.27063e-05 3.40517e-05 3.53636e-05 3.66371e-05 3.78676e-05 3.90511e-05 4.01842e-05 4.12642e-05 4.22888e-05 4.32564e-05 4.41661e-05 4.50173e-05 4.58102e-05 4.65454e-05 4.72241e-05 4.78476e-05 4.84179e-05 4.89372e-05 4.94077e-05 4.98323e-05 5.02135e-05 5.05544e-05 5.08576e-05 5.11263e-05 5.13632e-05 5.15711e-05 5.17528e-05 5.19108e-05 5.20477e-05 5.21656e-05 5.22667e-05 5.23531e-05 5.24266e-05 5.24888e-05 5.25411e-05 5.2585e-05 5.26217e-05 5.26522e-05 5.26773e-05 5.26981e-05 5.27151e-05 5.2729e-05 5.27403e-05 5.27494e-05 5.27567e-05 5.27626e-05 5.27673e-05 5.2771e-05 5.27739e-05 5.27762e-05 5.2778e-05 5.27794e-05 5.27805e-05 5.27814e-05 5.2782e-05 5.27825e-05 5.27828e-05 5.27831e-05 5.27832e-05 5.27833e-05 5.27833e-05 5.27832e-05 5.27831e-05 5.27828e-05 5.27825e-05 5.2782e-05 5.27814e-05 5.27805e-05 5.27794e-05 5.2778e-05 5.27762e-05 5.27739e-05 5.2771e-05 5.27673e-05 5.27626e-05 5.27567e-05 5.27494e-05 5.27403e-05 5.2729e-05 5.27151e-05 5.26981e-05 5.26773e-05 5.26522e-05 5.26217e-05 5.2585e-05 5.25411e-05 5.24888e-05 5.24266e-05 5.23531e-05 5.22667e-05 5.21656e-05 5.20477e-05 5.19108e-05 5.17528e-05 5.15711e-05 5.13632e-05 5.11263e-05 5.08576e-05 5.05544e-05 5.02135e-05 4.98323e-05 4.94077e-05 4.89372e-05 4.84179e-05 4.78476e-05 4.72241e-05 4.65454e-05 4.58102e-05 4.50173e-05 4.41661e-05 4.32564e-05 4.22888e-05 4.12642e-05 4.01842e-05 3.90511e-05 3.78676e-05 3.66371e-05 3.53636e-05 3.40517e-05 3.27063e-05 3.13329e-05 2.99373e-05 2.85257e-05 2.71044e-05 2.56797e-05 2.42584e-05 2.28467e-05 2.14512e-05 2.00778e-05 1.87324e-05 1.74205e-05 1.6147e-05 1.49165e-05 1.3733e-05 1.25998e-05 1.15199e-05 1.04953e-05 9.52766e-06 8.61803e-06 7.76682e-06 6.9739e-06 6.23866e-06 5.56002e-06 4.93647e-06 4.36616e-06 3.84693e-06 3.37634e-06 2.9518e-06 2.57055e-06 2.22973e-06 1.92644e-06 1.65778e-06 1.42089e-06 1.21296e-06 1.03127e-06 8.73248e-07 7.3643e-07 6.18511e-07 5.17344e-07 4.30944e-07 3.57491e-07 2.9533e-07 2.42965e-07 1.99052e-07 1.62395e-07 1.31933e-07 1.06736e-07 8.59876e-08 6.89803e-08 5.51028e-08 4.38306e-08 3.4716e-08 2.73793e-08 2.15003e-08 1.68104e-08 1.30856e-08 1.01399e-08 7.81998e-09 5.99971e-09 4.57599e-09 3.46474e-09 2.59754e-09 1.91873e-09 1.38283e-09 9.52368e-10 5.95957e-10 2.86569e-10 0 
0 3.82316e-10 7.95059e-10 1.2705e-09 1.84468e-09 2.55944e-09 3.46474e-09 4.62118e-09 6.10297e-09 8.0013e-09 1.04282e-08 1.35211e-08 1.7448e-08 2.24132e-08 2.86646e-08 3.65004e-08 4.62786e-08 5.84258e-08 7.34476e-08 9.19403e-08 1.14602e-07 1.42248e-07 1.75821e-07 2.16404e-07 2.6524e-07 3.2374e-07 3.93497e-07 4.76299e-07 5.74138e-07 6.89219e-07 8.23963e-07 9.81013e-07 1.16323e-06 1.37368e-06 1.61562e-06 1.89252e-06 2.20797e-06 2.56571e-06 2.96954e-06 3.42334e-06 3.93096e-06 4.4962e-06 5.12272e-06 5.81401e-06 6.57327e-06 7.40339e-06 8.30684e-06 9.28561e-06 1.03411e-05 1.14743e-05 1.26851e-05 1.39731e-05 1.5337e-05 1.67745e-05 1.82829e-05 1.98582e-05 2.14961e-05 2.31911e-05 2.49373e-05 2.67281e-05 2.85561e-05 3.04136e-05 3.22925e-05 3.41843e-05 3.60805e-05 3.79723e-05 3.98512e-05 4.17088e-05 4.35368e-05 4.53275e-05 4.70737e-05 4.87688e-05 5.04066e-05 5.1982e-05 5.34903e-05 5.49278e-05 5.62917e-05 5.75797e-05 5.87906e-05 5.99237e-05 6.09792e-05 6.1958e-05 6.28615e-05 6.36916e-05 6.44508e-05 6.51421e-05 6.57686e-05 6.63339e-05 6.68415e-05 6.72953e-05 6.76991e-05 6.80569e-05 6.83723e-05 6.86492e-05 6.88912e-05 6.91016e-05 6.92838e-05 6.94409e-05 6.95756e-05 6.96907e-05 6.97885e-05 6.98713e-05 6.99411e-05 6.99996e-05 7.00484e-05 7.0089e-05 7.01226e-05 7.01502e-05 7.01729e-05 7.01914e-05 7.02064e-05 7.02185e-05 7.02283e-05 7.02362e-05 7.02424e-05 7.02474e-05 7.02513e-05 7.02544e-05 7.02568e-05 7.02587e-05 7.02601e-05 7.02612e-05 7.02621e-05 7.02627e-05 7.02631e-05 7.02635e-05 7.02637e-05 7.02638e-05 7.02638e-05 7.02637e-05 7.02635e-05 7.02631e-05 7.02627e-05 7.02621e-05 7.02612e-05 7.02601e-05 7.02587e-05 7.02568e-05 7.02544e-05 7.02513e-05 7.02474e-05 7.02424e-05 7.02362e-05 7.02283e-05 7.02185e-05 7.02064e-05 7.01914e-05 7.01729e-05 7.01502e-05 7.01226e-05 7.0089e-05 7.00484e-05 6.99996e-05 6.99411e-05 6.98713e-05 6.97885e-05 6.96907e-05 6.95756e-05 6.94409e-05 6.92838e-05 6.91016e-05 6.88912e-05 6.86492e-05 6.83723e-05 6.80569e-05 6.76991e-05 6.72953e-05 6.68415e-05 6.63339e-05 6.57686e-05 6.51421e-05 6.44508e-05 6.36916e-05 6.28615e-05 6.1958e-05 6.09792e-05 5.99237e-05 5.87906e-05 5.75797e-05 5.62917e-05 5.49278e-05 5.34903e-05 5.1982e-05 5.04066e-05 4.87688e-05 4.70737e-05 4.53275e-05 4.35368e-05 4.17088e-05 3.98512e-05 3.79723e-05 3.60805e-05 3.41843e-05 3.22925e-05 3.04136e-05 2.85561e-05 2.67281e-05 2.49373e-05 2.31911e-05 2.14961e-05 1.98582e-05 1.82829e-05 1.67745e-05 1.5337e-05 1.39731e-05 1.26851e-05 1.14743e-05 1.03411e-05 9.28561e-06 8.30684e-06 7.40339e-06 6.57327e-06 5.81401e-06 5.12272e-06 4.4962e-06 3.93096e-06 3.42334e-06 2.96954e-06 2.56571e-06 2.20797e-06 1.89252e-06 1.61562e-06 1.37368e-06 1.16323e-06 9.81013e-07 8.23963e-07 6.89219e-07 5.74138e-07 4.76299e-07 3.93497e-07 3.2374e-07 2.6524e-07 2.16404e-07 1.75821e-07 1.42248e-07 1.14602e-07 9.19403e-08 7.34476e-08 5.84258e-08 4.62786e-08 3.65004e-08 2.86646e-08 2.24132e-08 1.7448e-08 1.35211e-08 1.04282e-08 8.0013e-09 6.10297e-09 4.62118e-09 3.46474e-09 2.55944e-09 1.84468e-09 1.2705e-09 7.95059e-10 3.82316e-10 0 
0 5.0504e-10 1.05025e-09 1.67824e-09 2.43659e-09 3.38052e-09 4.57599e-09 6.10297e-09 8.05941e-09 1.05656e-08 1.37694e-08 1.78522e-08 2.30355e-08 2.9589e-08 3.78395e-08 4.81806e-08 6.10843e-08 7.71132e-08 9.69343e-08 1.21334e-07 1.51233e-07 1.87706e-07 2.31994e-07 2.8553e-07 3.49949e-07 4.27111e-07 5.19118e-07 6.28325e-07 7.57359e-07 9.09126e-07 1.08682e-06 1.29391e-06 1.53419e-06 1.81168e-06 2.13069e-06 2.49578e-06 2.91168e-06 3.38331e-06 3.91571e-06 4.51395e-06 5.18314e-06 5.92825e-06 6.75413e-06 7.66536e-06 8.66616e-06 9.76034e-06 1.09512e-05 1.22412e-05 1.36324e-05 1.51259e-05 1.67217e-05 1.84193e-05 2.02167e-05 2.21113e-05 2.40991e-05 2.61752e-05 2.83337e-05 3.05675e-05 3.28688e-05 3.52287e-05 3.76376e-05 4.00855e-05 4.25616e-05 4.50547e-05 4.75535e-05 5.00466e-05 5.25226e-05 5.49705e-05 5.73795e-05 5.97394e-05 6.20406e-05 6.42745e-05 6.64329e-05 6.8509e-05 7.04968e-05 7.23914e-05 7.41889e-05 7.58864e-05 7.74823e-05 7.89757e-05 8.03669e-05 8.1657e-05 8.28478e-05 8.3942e-05 8.49428e-05 8.5854e-05 8.66799e-05 8.7425e-05 8.80942e-05 8.86925e-05 8.92248e-05 8.96965e-05 9.01124e-05 9.04775e-05 9.07965e-05 9.1074e-05 9.13142e-05 9.15213e-05 9.1699e-05 9.18508e-05 9.19798e-05 9.2089e-05 9.2181e-05 9.22582e-05 9.23226e-05 9.23762e-05 9.24205e-05 9.24569e-05 9.24868e-05 9.25112e-05 9.2531e-05 9.25471e-05 9.256e-05 9.25703e-05 9.25786e-05 9.25851e-05 9.25903e-05 9.25943e-05 9.25975e-05 9.26e-05 9.26019e-05 9.26034e-05 9.26045e-05 9.26053e-05 9.26059e-05 9.26064e-05 9.26066e-05 9.26067e-05 9.26067e-05 9.26066e-05 9.26064e-05 9.26059e-05 9.26053e-05 9.26045e-05 9.26034e-05 9.26019e-05 9.26e-05 9.25975e-05 9.25943e-05 9.25903e-05 9.25851e-05 9.25786e-05 9.25703e-05 9.256e-05 9.25471e-05 9.2531e-05 9.25112e-05 9.24868e-05 9.24569e-05 9.24205e-05 9.23762e-05 9.23226e-05 9.22582e-05 9.2181e-05 9.2089e-05 9.19798e-05 9.18508e-05 9.1699e-05 9.15213e-05 9.13142e-05 9.1074e-05 9.07965e-05 9.04775e-05 9.01124e-05 8.96965e-05 8.92248e-05 8.86925e-05 8.80942e-05 8.7425e-05 8.66799e-05 8.5854e-05 8.49428e-05 8.3942e-05 8.28478e-05 8.1657e-05 8.03669e-05 7.89757e-05 7.74823e-05 7.58864e-05 7.41889e-05 7.23914e-05 7.04968e-05 6.8509e-05 6.64329e-05 6.42745e-05 6.20406e-05 5.97394e-05 5.73795e-05 5.49705e-05 5.25226e-05 5.00466e-05 4.75535e-05 4.50547e-05 4.25616e-05 4.00855e-05 3.76376e-05 3.52287e-05 3.28688e-05 3.05675e-05 2.83337e-05 2.61752e-05 2.40991e-05 2.21113e-05 2.02167e-05 1.84193e-05 1.67217e-05 1.51259e-05 1.36324e-05 1.22412e-05 1.09512e-05 9.76034e-06 8.66616e-06 7.66536e-06 6.75413e-06 5.92825e-06 5.18314e-06 4.51395e-06 3.91571e-06 3.38331e-06 2.91168e-06 2.49578e-06 2.13069e-06 1.81168e-06 1.53419e-06 1.29391e-06 1.08682e-06 9.09126e-07 7.57359e-07 6.28325e-07 5.19118e-07 4.27111e-07 3.49949e-07 2.8553e-07 2.31994e-07 1.87706e-07 1.51233e-07 1.21334e-07 9.69343e-08 7.71132e-08 6.10843e-08 4.81806e-08 3.78395e-08 2.9589e-08 2.30355e-08 1.78522e-08 1.37694e-08 1.05656e-08 8.05941e-09 6.10297e-09 4.57599e-09 3.38052e-09 2.43659e-09 1.67824e-09 1.05025e-09 5.0504e-10 0 
0 6.62309e-10 1.37727e-09 2.20073e-09 3.19502e-09 4.43255e-09 5.99971e-09 8.0013e-09 1.05656e-08 1.38503e-08 1.8049e-08 2.33992e-08 3.01911e-08 3.87779e-08 4.95876e-08 6.31355e-08 8.00396e-08 1.01037e-07 1.27e-07 1.58958e-07 1.98118e-07 2.45885e-07 3.03885e-07 3.73992e-07 4.58346e-07 5.59382e-07 6.7985e-07 8.22832e-07 9.91766e-07 1.19045e-06 1.42307e-06 1.69417e-06 2.00869e-06 2.37191e-06 2.78947e-06 3.26731e-06 3.81165e-06 4.42891e-06 5.12566e-06 5.90858e-06 6.7843e-06 7.75937e-06 8.84009e-06 1.00325e-05 1.1342e-05 1.27737e-05 1.43318e-05 1.60198e-05 1.784e-05 1.9794e-05 2.18819e-05 2.41029e-05 2.64545e-05 2.89331e-05 3.15337e-05 3.42498e-05 3.70735e-05 3.99959e-05 4.30064e-05 4.60936e-05 4.92451e-05 5.24474e-05 5.56865e-05 5.89479e-05 6.22168e-05 6.54783e-05 6.87174e-05 7.19197e-05 7.50711e-05 7.81584e-05 8.11689e-05 8.40912e-05 8.6915e-05 8.96311e-05 9.22317e-05 9.47103e-05 9.70619e-05 9.92828e-05 0.000101371 0.000103325 0.000105145 0.000106833 0.000108391 0.000109823 0.000111132 0.000112325 0.000113405 0.00011438 0.000115256 0.000116039 0.000116736 0.000117353 0.000117897 0.000118375 0.000118793 0.000119156 0.000119471 0.000119742 0.000119974 0.000120173 0.000120342 0.000120485 0.000120605 0.000120706 0.000120791 0.000120861 0.000120919 0.000120967 0.000121006 0.000121038 0.000121064 0.000121085 0.000121102 0.000121115 0.000121126 0.000121135 0.000121141 0.000121147 0.000121151 0.000121154 0.000121157 0.000121158 0.00012116 0.000121161 0.000121162 0.000121162 0.000121163 0.000121163 0.000121163 0.000121163 0.000121162 0.000121162 0.000121161 0.00012116 0.000121158 0.000121157 0.000121154 0.000121151 0.000121147 0.000121141 0.000121135 0.000121126 0.000121115 0.000121102 0.000121085 0.000121064 0.000121038 0.000121006 0.000120967 0.000120919 0.000120861 0.000120791 0.000120706 0.000120605 0.000120485 0.000120342 0.000120173 0.000119974 0.000119742 0.000119471 0.000119156 0.000118793 0.000118375 0.000117897 0.000117353 0.000116736 0.000116039 0.000115256 0.00011438 0.000113405 0.000112325 0.000111132 0.000109823 0.000108391 0.000106833 0.000105145 0.000103325 0.000101371 9.92828e-05 9.70619e-05 9.47103e-05 9.22317e-05 8.96311e-05 8.6915e-05 8.40912e-05 8.11689e-05 7.81584e-05 7.50711e-05 7.19197e-05 6.87174e-05 6.54783e-05 6.22168e-05 5.89479e-05 5.56865e-05 5.24474e-05 4.92451e-05 4.60936e-05 4.30064e-05 3.99959e-05 3.70735e-05 3.42498e-05 3.15337e-05 2.89331e-05 2.64545e-05 2.41029e-05 2.18819e-05 1.9794e-05 1.784e-05 1.60198e-05 1.43318e-05 1.27737e-05 1.1342e-05 1.00325e-05 8.84009e-06 7.75937e-06 6.7843e-06 5.90858e-06 5.12566e-06 4.42891e-06 3.81165e-06 3.26731e-06 2.78947e-06 2.37191e-06 2.00869e-06 1.69417e-06 1.42307e-06 1.19045e-06 9.91766e-07 8.22832e-07 6.7985e-07 5.59382e-07 4.58346e-07 3.73992e-07 3.03885e-07 2.45885e-07 1.98118e-07 1.58958e-07 1.27e-07 1.01037e-07 8.00396e-08 6.31355e-08 4.95876e-08 3.87779e-08 3.01911e-08 2.33992e-08 1.8049e-08 1.38503e-08 1.05656e-08 8.0013e-09 5.99971e-09 4.43255e-09 3.19502e-09 2.20073e-09 1.37727e-09 6.62309e-10 0 