<?xml version="1.0"?>
<VTKFile type="ImageData" version="0.1" byte_order="LittleEndian">
  <ImageData WholeExtent="0 255 0 255 0 0" Origin="0 0 0" Spacing="1 1 1">
  <Piece Extent="0 255 0 255 0 0">
    <PointData>
      <DataArray type="Float32" Name="scalar_data" format="ascii" >0 0 0 0 0 0 0 0 0 0 0 0 0 0 0 0 0 0 0 0 0 0 0 0 0 0 0 0 0 0 0 0 0 0 0 0 0 0 0 0 0 0 0 0 0 0 0 0 0 0 0 0 0 0 0 0 0 0 0 0 0 0 0 0 0 0 0 0 0 0 0 0 0 0 0 0 0 0 0 0 0 0 0 0 0 0 0 0 0 0 0 0 0 0 0 0 0 0 0 0 0 0 0 0 0 0 0 0 0 0 0 0 0 0 0 0 0 0 0 0 0 0 0 0 0 0 0 0 0 0 0 0 0 0 0 0 0 0 0 0 0 0 0 0 0 0 0 0 0 0 0 0 0 0 0 0 0 0 0 0 0 0 0 0 0 0 0 0 0 0 0 0 0 0 0 0 0 0 0 0 0 0 0 0 0 0 0 0 0 0 0 0 0 0 0 0 0 0 0 0 0 0 0 0 0 0 0 0 0 0 0 0 0 0 0 0 0 0 0 0 0 0 0 0 0 0 0 0 0 0 0 0 0 0 0 0 0 0 0 0 0 0 0 0 0 0 0 0 0 0 0 0 0 0 0 0 
0 2.58655e-11 5.38443e-11 8.61816e-11 1.25392e-10 1.74409e-10 2.36746e-10 3.16686e-10 4.19491e-10 5.51656e-10 7.21188e-10 9.37942e-10 1.214e-09 1.56413e-09 2.00626e-09 2.56207e-09 3.25763e-09 4.12411e-09 5.19856e-09 6.5248e-09 8.1543e-09 1.01472e-08 1.25734e-08 1.55133e-08 1.90595e-08 2.33173e-08 2.84058e-08 3.44592e-08 4.16273e-08 5.0076e-08 5.99884e-08 7.15644e-08 8.50209e-08 1.00591e-07 1.18524e-07 1.39083e-07 1.62543e-07 1.89191e-07 2.1932e-07 2.53227e-07 2.9121e-07 3.33563e-07 3.8057e-07 4.32501e-07 4.89607e-07 5.52115e-07 6.20218e-07 6.94075e-07 7.73801e-07 8.59465e-07 9.51085e-07 1.04862e-06 1.15197e-06 1.26099e-06 1.37544e-06 1.49504e-06 1.61945e-06 1.74825e-06 1.881e-06 2.01718e-06 2.15623e-06 2.29755e-06 2.44052e-06 2.58449e-06 2.7288e-06 2.87276e-06 3.01573e-06 3.15706e-06 3.29611e-06 3.43228e-06 3.56503e-06 3.69384e-06 3.81825e-06 3.93785e-06 4.0523e-06 4.16131e-06 4.26467e-06 4.3622e-06 4.45382e-06 4.53949e-06 4.61921e-06 4.69307e-06 4.76117e-06 4.82368e-06 4.88079e-06 4.93272e-06 4.97973e-06 5.02208e-06 5.06006e-06 5.09397e-06 5.1241e-06 5.15075e-06 5.17421e-06 5.19476e-06 5.2127e-06 5.22827e-06 5.24172e-06 5.2533e-06 5.26321e-06 5.27166e-06 5.27883e-06 5.28488e-06 5.28997e-06 5.29423e-06 5.29778e-06 5.30072e-06 5.30314e-06 5.30513e-06 5.30676e-06 5.30809e-06 5.30916e-06 5.31003e-06 5.31073e-06 5.31128e-06 5.31172e-06 5.31207e-06 5.31235e-06 5.31257e-06 5.31273e-06 5.31286e-06 5.31297e-06 5.31304e-06 5.3131e-06 5.31314e-06 5.31318e-06 5.3132e-06 5.31321e-06 5.31322e-06 5.31322e-06 5.31321e-06 5.3132e-06 5.31318e-06 5.31314e-06 5.3131e-06 5.31304e-06 5.31297e-06 5.31286e-06 5.31273e-06 5.31257e-06 5.31235e-06 5.31207e-06 5.31172e-06 5.31128e-06 5.31073e-06 5.31003e-06 5.30916e-06 5.30809e-06 5.30676e-06 5.30513e-06 5.30314e-06 5.30072e-06 5.29778e-06 5.29423e-06 5.28997e-06 5.28488e-06 5.27883e-06 5.27166e-06 5.26321e-06 5.2533e-06 5.24172e-06 5.22827e-06 5.2127e-06 5.19476e-06 5.17421e-06 5.15075e-06 5.1241e-06 5.09397e-06 5.06006e-06 5.02208e-06 4.97973e-06 4.93272e-06 4.88079e-06 4.82368e-06 4.76117e-06 4.69307e-06 4.61921e-06 4.53949e-06 4.45382e-06 4.3622e-06 4.26467e-06 4.16131e-06 4.0523e-06 3.93785e-06 3.81825e-06 3.69384e-06 3.56503e-06 3.43228e-06 3.29611e-06 3.15706e-06 3.01573e-06 2.87276e-06 2.7288e-06 2.58449e-06 2.44052e-06 2.29755e-06 2.15623e-06 2.01718e-06 1.881e-06 1.74825e-06 1.61945e-06 1.49504e-06 1.37544e-06 1.26099e-06 1.15197e-06 1.04862e-06 9.51085e-07 8.59465e-07 7.73801e-07 6.94075e-07 6.20218e-07 5.52115e-07 4.89607e-07 4.32501e-07 3.8057e-07 3.33563e-07 2.9121e-07 2.53227e-07 2.1932e-07 1.89191e-07 1.62543e-07 1.39083e-07 1.18524e-07 1.00591e-07 8.50209e-08 7.15644e-08 5.99884e-08 5.0076e-08 4.16273e-08 3.44592e-08 2.84058e-08 2.33173e-08 1.90595e-08 1.55133e-08 1.25734e-08 1.01472e-08 8.1543e-09 6.5248e-09 5.19856e-09 4.12411e-09 3.25763e-09 2.56207e-09 2.00626e-09 1.56413e-09 1.214e-09 9.37942e-10 7.21188e-10 5.51656e-10 4.19491e-10 3.16686e-10 2.36746e-10 1.74409e-10 1.25392e-10 8.61816e-11 5.38443e-11 2.58655e-11 0 
0 5.38443e-11 1.12087e-10 1.79401e-10 2.61021e-10 3.63049e-10 4.92799e-10 6.59183e-10 8.73155e-10 1.14823e-09 1.50106e-09 1.95216e-09 2.52668e-09 3.25532e-09 4.17541e-09 5.33204e-09 6.77946e-09 8.58251e-09 1.08183e-08 1.3578e-08 1.69686e-08 2.11153e-08 2.61634e-08 3.22806e-08 3.96589e-08 4.85177e-08 5.91047e-08 7.1699e-08 8.66121e-08 1.0419e-07 1.24812e-07 1.48895e-07 1.76889e-07 2.09281e-07 2.46587e-07 2.89355e-07 3.38159e-07 3.93594e-07 4.56269e-07 5.26803e-07 6.05815e-07 6.93916e-07 7.91697e-07 8.9972e-07 1.01851e-06 1.14853e-06 1.29019e-06 1.44382e-06 1.60965e-06 1.78783e-06 1.9784e-06 2.18128e-06 2.39626e-06 2.623e-06 2.86105e-06 3.10982e-06 3.36858e-06 3.6365e-06 3.91262e-06 4.19586e-06 4.48507e-06 4.77902e-06 5.07639e-06 5.37583e-06 5.67597e-06 5.97541e-06 6.27278e-06 6.56673e-06 6.85594e-06 7.13918e-06 7.4153e-06 7.68322e-06 7.94198e-06 8.19075e-06 8.4288e-06 8.65555e-06 8.87052e-06 9.0734e-06 9.26397e-06 9.44215e-06 9.60799e-06 9.76161e-06 9.90327e-06 1.00333e-05 1.01521e-05 1.02601e-05 1.03579e-05 1.0446e-05 1.0525e-05 1.05955e-05 1.06582e-05 1.07136e-05 1.07624e-05 1.08052e-05 1.08425e-05 1.08749e-05 1.09029e-05 1.0927e-05 1.09476e-05 1.09652e-05 1.09801e-05 1.09927e-05 1.10033e-05 1.10121e-05 1.10195e-05 1.10256e-05 1.10307e-05 1.10348e-05 1.10382e-05 1.1041e-05 1.10432e-05 1.1045e-05 1.10465e-05 1.10476e-05 1.10485e-05 1.10493e-05 1.10498e-05 1.10503e-05 1.10506e-05 1.10509e-05 1.10511e-05 1.10513e-05 1.10514e-05 1.10515e-05 1.10516e-05 1.10516e-05 1.10516e-05 1.10517e-05 1.10517e-05 1.10516e-05 1.10516e-05 1.10516e-05 1.10515e-05 1.10514e-05 1.10513e-05 1.10511e-05 1.10509e-05 1.10506e-05 1.10503e-05 1.10498e-05 1.10493e-05 1.10485e-05 1.10476e-05 1.10465e-05 1.1045e-05 1.10432e-05 1.1041e-05 1.10382e-05 1.10348e-05 1.10307e-05 1.10256e-05 1.10195e-05 1.10121e-05 1.10033e-05 1.09927e-05 1.09801e-05 1.09652e-05 1.09476e-05 1.0927e-05 1.09029e-05 1.08749e-05 1.08425e-05 1.08052e-05 1.07624e-05 1.07136e-05 1.06582e-05 1.05955e-05 1.0525e-05 1.0446e-05 1.03579e-05 1.02601e-05 1.01521e-05 1.00333e-05 9.90327e-06 9.76161e-06 9.60799e-06 9.44215e-06 9.26397e-06 9.0734e-06 8.87052e-06 8.65555e-06 8.4288e-06 8.19075e-06 7.94198e-06 7.68322e-06 7.4153e-06 7.13918e-06 6.85594e-06 6.56673e-06 6.27278e-06 5.97541e-06 5.67597e-06 5.37583e-06 5.07639e-06 4.77902e-06 4.48507e-06 4.19586e-06 3.91262e-06 3.6365e-06 3.36858e-06 3.10982e-06 2.86105e-06 2.623e-06 2.39626e-06 2.18128e-06 1.9784e-06 1.78783e-06 1.60965e-06 1.44382e-06 1.29019e-06 1.14853e-06 1.01851e-06 8.9972e-07 7.91697e-07 6.93916e-07 6.05815e-07 5.26803e-07 4.56269e-07 3.93594e-07 3.38159e-07 2.89355e-07 2.46587e-07 2.09281e-07 1.76889e-07 1.48895e-07 1.24812e-07 1.0419e-07 8.66121e-08 7.1699e-08 5.91047e-08 4.85177e-08 3.96589e-08 3.22806e-08 2.61634e-08 2.11153e-08 1.69686e-08 1.3578e-08 1.08183e-08 8.58251e-09 6.77946e-09 5.33204e-09 4.17541e-09 3.25532e-09 2.52668e-09 1.95216e-09 1.50106e-09 1.14823e-09 8.73155e-10 6.59183e-10 4.92799e-10 3.63049e-10 2.61021e-10 1.79401e-10 1.12087e-10 5.38443e-11 0 
0 8.61816e-11 1.79401e-10 2.87136e-10 4.1776e-10 5.81037e-10 7.8867e-10 1.05491e-09 1.39729e-09 1.83742e-09 2.40194e-09 3.12367e-09 4.04282e-09 5.20852e-09 6.68043e-09 8.5307e-09 1.08461e-08 1.37302e-08 1.73065e-08 2.17206e-08 2.71437e-08 3.37761e-08 4.18498e-08 5.1633e-08 6.34331e-08 7.76002e-08 9.45309e-08 1.14671e-07 1.38519e-07 1.66626e-07 1.99602e-07 2.38111e-07 2.82873e-07 3.34665e-07 3.94314e-07 4.62695e-07 5.40725e-07 6.29354e-07 7.29557e-07 8.42324e-07 9.68643e-07 1.10949e-06 1.26581e-06 1.4385e-06 1.6284e-06 1.83626e-06 2.06271e-06 2.3083e-06 2.57339e-06 2.85823e-06 3.16286e-06 3.48716e-06 3.83079e-06 4.19324e-06 4.57376e-06 4.97141e-06 5.38503e-06 5.81329e-06 6.25464e-06 6.70738e-06 7.16967e-06 7.63952e-06 8.11484e-06 8.59348e-06 9.07323e-06 9.55187e-06 1.00272e-05 1.0497e-05 1.09593e-05 1.14121e-05 1.18534e-05 1.22817e-05 1.26953e-05 1.30929e-05 1.34735e-05 1.38359e-05 1.41796e-05 1.45039e-05 1.48085e-05 1.50933e-05 1.53584e-05 1.5604e-05 1.58305e-05 1.60383e-05 1.62282e-05 1.64009e-05 1.65572e-05 1.66981e-05 1.68244e-05 1.69372e-05 1.70374e-05 1.7126e-05 1.7204e-05 1.72724e-05 1.7332e-05 1.73838e-05 1.74286e-05 1.74671e-05 1.75001e-05 1.75282e-05 1.7552e-05 1.75722e-05 1.75891e-05 1.76033e-05 1.76151e-05 1.76249e-05 1.76329e-05 1.76396e-05 1.7645e-05 1.76494e-05 1.7653e-05 1.76559e-05 1.76582e-05 1.766e-05 1.76615e-05 1.76627e-05 1.76636e-05 1.76643e-05 1.76649e-05 1.76653e-05 1.76656e-05 1.76659e-05 1.76661e-05 1.76662e-05 1.76663e-05 1.76664e-05 1.76664e-05 1.76665e-05 1.76665e-05 1.76664e-05 1.76664e-05 1.76663e-05 1.76662e-05 1.76661e-05 1.76659e-05 1.76656e-05 1.76653e-05 1.76649e-05 1.76643e-05 1.76636e-05 1.76627e-05 1.76615e-05 1.766e-05 1.76582e-05 1.76559e-05 1.7653e-05 1.76494e-05 1.7645e-05 1.76396e-05 1.76329e-05 1.76249e-05 1.76151e-05 1.76033e-05 1.75891e-05 1.75722e-05 1.7552e-05 1.75282e-05 1.75001e-05 1.74671e-05 1.74286e-05 1.73838e-05 1.7332e-05 1.72724e-05 1.7204e-05 1.7126e-05 1.70374e-05 1.69372e-05 1.68244e-05 1.66981e-05 1.65572e-05 1.64009e-05 1.62282e-05 1.60383e-05 1.58305e-05 1.5604e-05 1.53584e-05 1.50933e-05 1.48085e-05 1.45039e-05 1.41796e-05 1.38359e-05 1.34735e-05 1.30929e-05 1.26953e-05 1.22817e-05 1.18534e-05 1.14121e-05 1.09593e-05 1.0497e-05 1.00272e-05 9.55187e-06 9.07323e-06 8.59348e-06 8.11484e-06 7.63952e-06 7.16967e-06 6.70738e-06 6.25464e-06 5.81329e-06 5.38503e-06 4.97141e-06 4.57376e-06 4.19324e-06 3.83079e-06 3.48716e-06 3.16286e-06 2.85823e-06 2.57339e-06 2.3083e-06 2.06271e-06 1.83626e-06 1.6284e-06 1.4385e-06 1.26581e-06 1.10949e-06 9.68643e-07 8.42324e-07 7.29557e-07 6.29354e-07 5.40725e-07 4.62695e-07 3.94314e-07 3.34665e-07 2.82873e-07 2.38111e-07 1.99602e-07 1.66626e-07 1.38519e-07 1.14671e-07 9.45309e-08 7.76002e-08 6.34331e-08 5.1633e-08 4.18498e-08 3.37761e-08 2.71437e-08 2.17206e-08 1.73065e-08 1.37302e-08 1.08461e-08 8.5307e-09 6.68043e-09 5.20852e-09 4.04282e-09 3.12367e-09 2.40194e-09 1.83742e-09 1.39729e-09 1.05491e-09 7.8867e-10 5.81037e-10 4.1776e-10 2.87136e-10 1.79401e-10 8.61816e-11 0 
0 1.25392e-10 2.61021e-10 4.1776e-10 6.07788e-10 8.45305e-10 1.14733e-09 1.53458e-09 2.03255e-09 2.67264e-09 3.49362e-09 4.54317e-09 5.87975e-09 7.57476e-09 9.71493e-09 1.24051e-08 1.57714e-08 1.99645e-08 2.51635e-08 3.15803e-08 3.94638e-08 4.91045e-08 6.08401e-08 7.50599e-08 9.22106e-08 1.12801e-07 1.37407e-07 1.66677e-07 2.01333e-07 2.4218e-07 2.90098e-07 3.46056e-07 4.11099e-07 4.86355e-07 5.73025e-07 6.7238e-07 7.85751e-07 9.1452e-07 1.0601e-06 1.22393e-06 1.40745e-06 1.61206e-06 1.83916e-06 2.09003e-06 2.36589e-06 2.66783e-06 2.99679e-06 3.35353e-06 3.73861e-06 4.15235e-06 4.59484e-06 5.0659e-06 5.56504e-06 6.0915e-06 6.6442e-06 7.22178e-06 7.82256e-06 8.44458e-06 9.08562e-06 9.74321e-06 1.04147e-05 1.10971e-05 1.17875e-05 1.24826e-05 1.31794e-05 1.38746e-05 1.4565e-05 1.52474e-05 1.59189e-05 1.65765e-05 1.72175e-05 1.78395e-05 1.84403e-05 1.90179e-05 1.95706e-05 2.00971e-05 2.05962e-05 2.10673e-05 2.15097e-05 2.19235e-05 2.23086e-05 2.26653e-05 2.29943e-05 2.32962e-05 2.35721e-05 2.38229e-05 2.405e-05 2.42546e-05 2.44382e-05 2.4602e-05 2.47476e-05 2.48763e-05 2.49897e-05 2.50891e-05 2.51757e-05 2.5251e-05 2.5316e-05 2.5372e-05 2.54199e-05 2.54608e-05 2.54954e-05 2.55247e-05 2.55493e-05 2.55699e-05 2.5587e-05 2.56013e-05 2.5613e-05 2.56226e-05 2.56305e-05 2.56369e-05 2.56421e-05 2.56463e-05 2.56497e-05 2.56524e-05 2.56545e-05 2.56562e-05 2.56575e-05 2.56586e-05 2.56594e-05 2.566e-05 2.56605e-05 2.56609e-05 2.56612e-05 2.56614e-05 2.56615e-05 2.56616e-05 2.56617e-05 2.56617e-05 2.56617e-05 2.56617e-05 2.56616e-05 2.56615e-05 2.56614e-05 2.56612e-05 2.56609e-05 2.56605e-05 2.566e-05 2.56594e-05 2.56586e-05 2.56575e-05 2.56562e-05 2.56545e-05 2.56524e-05 2.56497e-05 2.56463e-05 2.56421e-05 2.56369e-05 2.56305e-05 2.56226e-05 2.5613e-05 2.56013e-05 2.5587e-05 2.55699e-05 2.55493e-05 2.55247e-05 2.54954e-05 2.54608e-05 2.54199e-05 2.5372e-05 2.5316e-05 2.5251e-05 2.51757e-05 2.50891e-05 2.49897e-05 2.48763e-05 2.47476e-05 2.4602e-05 2.44382e-05 2.42546e-05 2.405e-05 2.38229e-05 2.35721e-05 2.32962e-05 2.29943e-05 2.26653e-05 2.23086e-05 2.19235e-05 2.15097e-05 2.10673e-05 2.05962e-05 2.00971e-05 1.95706e-05 1.90179e-05 1.84403e-05 1.78395e-05 1.72175e-05 1.65765e-05 1.59189e-05 1.52474e-05 1.4565e-05 1.38746e-05 1.31794e-05 1.24826e-05 1.17875e-05 1.10971e-05 1.04147e-05 9.74321e-06 9.08562e-06 8.44458e-06 7.82256e-06 7.22178e-06 6.6442e-06 6.0915e-06 5.56504e-06 5.0659e-06 4.59484e-06 4.15235e-06 3.73861e-06 3.35353e-06 2.99679e-06 2.66783e-06 2.36589e-06 2.09003e-06 1.83916e-06 1.61206e-06 1.40745e-06 1.22393e-06 1.0601e-06 9.1452e-07 7.85751e-07 6.7238e-07 5.73025e-07 4.86355e-07 4.11099e-07 3.46056e-07 2.90098e-07 2.4218e-07 2.01333e-07 1.66677e-07 1.37407e-07 1.12801e-07 9.22106e-08 7.50599e-08 6.08401e-08 4.91045e-08 3.94638e-08 3.15803e-08 2.51635e-08 1.99645e-08 1.57714e-08 1.24051e-08 9.71493e-09 7.57476e-09 5.87975e-09 4.54317e-09 3.49362e-09 2.67264e-09 2.03255e-09 1.53458e-09 1.14733e-09 8.45305e-10 6.07788e-10 4.1776e-10 2.61021e-10 1.25392e-10 0 
0 1.74409e-10 3.63049e-10 5.81037e-10 8.45305e-10 1.17559e-09 1.59554e-09 2.13397e-09 2.82629e-09 3.71615e-09 4.85741e-09 6.31633e-09 8.17413e-09 1.053e-08 1.35045e-08 1.72432e-08 2.19212e-08 2.7748e-08 3.49723e-08 4.38883e-08 5.48416e-08 6.8236e-08 8.45402e-08 1.04295e-07 1.2812e-07 1.56723e-07 1.90902e-07 2.31558e-07 2.79695e-07 3.36426e-07 4.02979e-07 4.80694e-07 5.71023e-07 6.75533e-07 7.95889e-07 9.33857e-07 1.09128e-06 1.27009e-06 1.47223e-06 1.69971e-06 1.95451e-06 2.2386e-06 2.55389e-06 2.90219e-06 3.28518e-06 3.70436e-06 4.16105e-06 4.65629e-06 5.19086e-06 5.76522e-06 6.37948e-06 7.03338e-06 7.72626e-06 8.45705e-06 9.22426e-06 1.0026e-05 1.08599e-05 1.17233e-05 1.26131e-05 1.35259e-05 1.44579e-05 1.54052e-05 1.63634e-05 1.73284e-05 1.82956e-05 1.92605e-05 2.02188e-05 2.1166e-05 2.2098e-05 2.30108e-05 2.39006e-05 2.4764e-05 2.5598e-05 2.63997e-05 2.71669e-05 2.78977e-05 2.85906e-05 2.92445e-05 2.98587e-05 3.04331e-05 3.09677e-05 3.14629e-05 3.19196e-05 3.23388e-05 3.27218e-05 3.30701e-05 3.33853e-05 3.36694e-05 3.39242e-05 3.41517e-05 3.43539e-05 3.45327e-05 3.46901e-05 3.48281e-05 3.49484e-05 3.50529e-05 3.51433e-05 3.5221e-05 3.52875e-05 3.53443e-05 3.53924e-05 3.54331e-05 3.54672e-05 3.54958e-05 3.55197e-05 3.55394e-05 3.55557e-05 3.55691e-05 3.55801e-05 3.5589e-05 3.55962e-05 3.5602e-05 3.56067e-05 3.56104e-05 3.56134e-05 3.56158e-05 3.56176e-05 3.56191e-05 3.56202e-05 3.56211e-05 3.56218e-05 3.56223e-05 3.56227e-05 3.5623e-05 3.56232e-05 3.56233e-05 3.56234e-05 3.56235e-05 3.56235e-05 3.56234e-05 3.56233e-05 3.56232e-05 3.5623e-05 3.56227e-05 3.56223e-05 3.56218e-05 3.56211e-05 3.56202e-05 3.56191e-05 3.56176e-05 3.56158e-05 3.56134e-05 3.56104e-05 3.56067e-05 3.5602e-05 3.55962e-05 3.5589e-05 3.55801e-05 3.55691e-05 3.55557e-05 3.55394e-05 3.55197e-05 3.54958e-05 3.54672e-05 3.54331e-05 3.53924e-05 3.53443e-05 3.52875e-05 3.5221e-05 3.51433e-05 3.50529e-05 3.49484e-05 3.48281e-05 3.46901e-05 3.45327e-05 3.43539e-05 3.41517e-05 3.39242e-05 3.36694e-05 3.33853e-05 3.30701e-05 3.27218e-05 3.23388e-05 3.19196e-05 3.14629e-05 3.09677e-05 3.04331e-05 2.98587e-05 2.92445e-05 2.85906e-05 2.78977e-05 2.71669e-05 2.63997e-05 2.5598e-05 2.4764e-05 2.39006e-05 2.30108e-05 2.2098e-05 2.1166e-05 2.02188e-05 1.92605e-05 1.82956e-05 1.73284e-05 1.63634e-05 1.54052e-05 1.44579e-05 1.35259e-05 1.26131e-05 1.17233e-05 1.08599e-05 1.0026e-05 9.22426e-06 8.45705e-06 7.72626e-06 7.03338e-06 6.37948e-06 5.76522e-06 5.19086e-06 4.65629e-06 4.16105e-06 3.70436e-06 3.28518e-06 2.90219e-06 2.55389e-06 2.2386e-06 1.95451e-06 1.69971e-06 1.47223e-06 1.27009e-06 1.09128e-06 9.33857e-07 7.95889e-07 6.75533e-07 5.71023e-07 4.80694e-07 4.02979e-07 3.36426e-07 2.79695e-07 2.31558e-07 1.90902e-07 1.56723e-07 1.2812e-07 1.04295e-07 8.45402e-08 6.8236e-08 5.48416e-08 4.38883e-08 3.49723e-08 2.7748e-08 2.19212e-08 1.72432e-08 1.35045e-08 1.053e-08 8.17413e-09 6.31633e-09 4.85741e-09 3.71615e-09 2.82629e-09 2.13397e-09 1.59554e-09 1.17559e-09 8.45305e-10 5.81037e-10 3.63049e-10 1.74409e-10 0 
0 2.36746e-10 4.92799e-10 7.8867e-10 1.14733e-09 1.59554e-09 2.1654e-09 2.89596e-09 3.83526e-09 5.04251e-09 6.59071e-09 8.5697e-09 1.10896e-08 1.4285e-08 1.83191e-08 2.33894e-08 2.97332e-08 3.76344e-08 4.74302e-08 5.95192e-08 7.43699e-08 9.25292e-08 1.14632e-07 1.41412e-07 1.73709e-07 2.12479e-07 2.58807e-07 3.13911e-07 3.79152e-07 4.56038e-07 5.4623e-07 6.51546e-07 7.73953e-07 9.15569e-07 1.07865e-06 1.2656e-06 1.4789e-06 1.72115e-06 1.99503e-06 2.30321e-06 2.64841e-06 3.03328e-06 3.4604e-06 3.93223e-06 4.45103e-06 5.01886e-06 5.63747e-06 6.30829e-06 7.03238e-06 7.81035e-06 8.64235e-06 9.52802e-06 1.04665e-05 1.14563e-05 1.24954e-05 1.35812e-05 1.47107e-05 1.58801e-05 1.70852e-05 1.83214e-05 1.95836e-05 2.08665e-05 2.21643e-05 2.34712e-05 2.47811e-05 2.60879e-05 2.73857e-05 2.86686e-05 2.99308e-05 3.1167e-05 3.23722e-05 3.35415e-05 3.4671e-05 3.57568e-05 3.67959e-05 3.77857e-05 3.87242e-05 3.96099e-05 4.04419e-05 4.12198e-05 4.19439e-05 4.26148e-05 4.32334e-05 4.38012e-05 4.432e-05 4.47918e-05 4.52189e-05 4.56038e-05 4.5949e-05 4.62572e-05 4.65311e-05 4.67733e-05 4.69866e-05 4.71736e-05 4.73367e-05 4.74783e-05 4.76007e-05 4.7706e-05 4.77962e-05 4.78731e-05 4.79383e-05 4.79934e-05 4.80398e-05 4.80785e-05 4.81108e-05 4.81376e-05 4.81597e-05 4.81779e-05 4.81927e-05 4.82048e-05 4.82146e-05 4.82225e-05 4.82288e-05 4.82339e-05 4.82379e-05 4.82411e-05 4.82436e-05 4.82456e-05 4.82472e-05 4.82483e-05 4.82493e-05 4.825e-05 4.82505e-05 4.82509e-05 4.82512e-05 4.82514e-05 4.82515e-05 4.82516e-05 4.82516e-05 4.82515e-05 4.82514e-05 4.82512e-05 4.82509e-05 4.82505e-05 4.825e-05 4.82493e-05 4.82483e-05 4.82472e-05 4.82456e-05 4.82436e-05 4.82411e-05 4.82379e-05 4.82339e-05 4.82288e-05 4.82225e-05 4.82146e-05 4.82048e-05 4.81927e-05 4.81779e-05 4.81597e-05 4.81376e-05 4.81108e-05 4.80785e-05 4.80398e-05 4.79934e-05 4.79383e-05 4.78731e-05 4.77962e-05 4.7706e-05 4.76007e-05 4.74783e-05 4.73367e-05 4.71736e-05 4.69866e-05 4.67733e-05 4.65311e-05 4.62572e-05 4.5949e-05 4.56038e-05 4.52189e-05 4.47918e-05 4.432e-05 4.38012e-05 4.32334e-05 4.26148e-05 4.19439e-05 4.12198e-05 4.04419e-05 3.96099e-05 3.87242e-05 3.77857e-05 3.67959e-05 3.57568e-05 3.4671e-05 3.35415e-05 3.23722e-05 3.1167e-05 2.99308e-05 2.86686e-05 2.73857e-05 2.60879e-05 2.47811e-05 2.34712e-05 2.21643e-05 2.08665e-05 1.95836e-05 1.83214e-05 1.70852e-05 1.58801e-05 1.47107e-05 1.35812e-05 1.24954e-05 1.14563e-05 1.04665e-05 9.52802e-06 8.64235e-06 7.81035e-06 7.03238e-06 6.30829e-06 5.63747e-06 5.01886e-06 4.45103e-06 3.93223e-06 3.4604e-06 3.03328e-06 2.64841e-06 2.30321e-06 1.99503e-06 1.72115e-06 1.4789e-06 1.2656e-06 1.07865e-06 9.15569e-07 7.73953e-07 6.51546e-07 5.4623e-07 4.56038e-07 3.79152e-07 3.13911e-07 2.58807e-07 2.12479e-07 1.73709e-07 1.41412e-07 1.14632e-07 9.25292e-08 7.43699e-08 5.95192e-08 4.74302e-08 3.76344e-08 2.97332e-08 2.33894e-08 1.83191e-08 1.4285e-08 1.10896e-08 8.5697e-09 6.59071e-09 5.04251e-09 3.83526e-09 2.89596e-09 2.1654e-09 1.59554e-09 1.14733e-09 7.8867e-10 4.92799e-10 2.36746e-10 0 
0 3.16686e-10 6.59183e-10 1.05491e-09 1.53458e-09 2.13397e-09 2.89596e-09 3.87278e-09 5.12859e-09 6.74251e-09 8.8121e-09 1.14574e-08 1.48255e-08 1.90961e-08 2.44874e-08 3.12631e-08 3.97402e-08 5.02978e-08 6.33861e-08 7.95376e-08 9.93777e-08 1.23637e-07 1.53163e-07 1.88935e-07 2.32073e-07 2.83857e-07 3.45731e-07 4.19324e-07 5.0645e-07 6.09124e-07 7.29563e-07 8.7019e-07 1.03363e-06 1.22272e-06 1.44046e-06 1.69004e-06 1.97481e-06 2.29823e-06 2.66383e-06 3.07524e-06 3.53603e-06 4.04977e-06 4.6199e-06 5.24968e-06 5.94215e-06 6.70004e-06 7.52568e-06 8.421e-06 9.38738e-06 1.04257e-05 1.1536e-05 1.2718e-05 1.39704e-05 1.52913e-05 1.6678e-05 1.81271e-05 1.96343e-05 2.11948e-05 2.28029e-05 2.44526e-05 2.61369e-05 2.78488e-05 2.95807e-05 3.13246e-05 3.30725e-05 3.48164e-05 3.65482e-05 3.82601e-05 3.99445e-05 4.15941e-05 4.32023e-05 4.47628e-05 4.627e-05 4.7719e-05 4.91057e-05 5.04266e-05 5.1679e-05 5.2861e-05 5.39714e-05 5.50097e-05 5.59761e-05 5.68714e-05 5.7697e-05 5.84549e-05 5.91474e-05 5.97772e-05 6.03473e-05 6.0861e-05 6.13218e-05 6.17332e-05 6.20988e-05 6.24222e-05 6.2707e-05 6.29566e-05 6.31743e-05 6.33634e-05 6.35269e-05 6.36675e-05 6.37879e-05 6.38906e-05 6.39777e-05 6.40513e-05 6.41132e-05 6.4165e-05 6.42081e-05 6.42439e-05 6.42734e-05 6.42977e-05 6.43175e-05 6.43337e-05 6.43468e-05 6.43573e-05 6.43658e-05 6.43726e-05 6.43779e-05 6.43822e-05 6.43856e-05 6.43882e-05 6.43903e-05 6.43919e-05 6.43931e-05 6.4394e-05 6.43947e-05 6.43953e-05 6.43957e-05 6.43959e-05 6.43961e-05 6.43962e-05 6.43962e-05 6.43961e-05 6.43959e-05 6.43957e-05 6.43953e-05 6.43947e-05 6.4394e-05 6.43931e-05 6.43919e-05 6.43903e-05 6.43882e-05 6.43856e-05 6.43822e-05 6.43779e-05 6.43726e-05 6.43658e-05 6.43573e-05 6.43468e-05 6.43337e-05 6.43175e-05 6.42977e-05 6.42734e-05 6.42439e-05 6.42081e-05 6.4165e-05 6.41132e-05 6.40513e-05 6.39777e-05 6.38906e-05 6.37879e-05 6.36675e-05 6.35269e-05 6.33634e-05 6.31743e-05 6.29566e-05 6.2707e-05 6.24222e-05 6.20988e-05 6.17332e-05 6.13218e-05 6.0861e-05 6.03473e-05 5.97772e-05 5.91474e-05 5.84549e-05 5.7697e-05 5.68714e-05 5.59761e-05 5.50097e-05 5.39714e-05 5.2861e-05 5.1679e-05 5.04266e-05 4.91057e-05 4.7719e-05 4.627e-05 4.47628e-05 4.32023e-05 4.15941e-05 3.99445e-05 3.82601e-05 3.65482e-05 3.48164e-05 3.30725e-05 3.13246e-05 2.95807e-05 2.78488e-05 2.61369e-05 2.44526e-05 2.28029e-05 2.11948e-05 1.96343e-05 1.81271e-05 1.6678e-05 1.52913e-05 1.39704e-05 1.2718e-05 1.1536e-05 1.04257e-05 9.38738e-06 8.421e-06 7.52568e-06 6.70004e-06 5.94215e-06 5.24968e-06 4.6199e-06 4.04977e-06 3.53603e-06 3.07524e-06 2.66383e-06 2.29823e-06 1.97481e-06 1.69004e-06 1.44046e-06 1.22272e-06 1.03363e-06 8.7019e-07 7.29563e-07 6.09124e-07 5.0645e-07 4.19324e-07 3.45731e-07 2.83857e-07 2.32073e-07 1.88935e-07 1.53163e-07 1.23637e-07 9.93777e-08 7.95376e-08 6.33861e-08 5.02978e-08 3.97402e-08 3.12631e-08 2.44874e-08 1.90961e-08 1.48255e-08 1.14574e-08 8.8121e-09 6.74251e-09 5.12859e-09 3.87278e-09 2.89596e-09 2.13397e-09 1.53458e-09 1.05491e-09 6.59183e-10 3.16686e-10 0 
0 4.19491e-10 8.73155e-10 1.39729e-09 2.03255e-09 2.82629e-09 3.83526e-09 5.12859e-09 6.79117e-09 8.92771e-09 1.16673e-08 1.51687e-08 1.96265e-08 2.52785e-08 3.24132e-08 4.13794e-08 5.25964e-08 6.65654e-08 8.3882e-08 1.0525e-07 1.31497e-07 1.63588e-07 2.02644e-07 2.49959e-07 3.07015e-07 3.75502e-07 4.57332e-07 5.54653e-07 6.69867e-07 8.05635e-07 9.64887e-07 1.15083e-06 1.36692e-06 1.61691e-06 1.90478e-06 2.23473e-06 2.61118e-06 3.03871e-06 3.52199e-06 4.0658e-06 4.67487e-06 5.35391e-06 6.10745e-06 6.93982e-06 7.85502e-06 8.85664e-06 9.9478e-06 1.1131e-05 1.24081e-05 1.37802e-05 1.52475e-05 1.68094e-05 1.84644e-05 2.02099e-05 2.20422e-05 2.3957e-05 2.59486e-05 2.80105e-05 3.01354e-05 3.23152e-05 3.45408e-05 3.68027e-05 3.9091e-05 4.13953e-05 4.37048e-05 4.60091e-05 4.82974e-05 5.05593e-05 5.27849e-05 5.49647e-05 5.70896e-05 5.91515e-05 6.11431e-05 6.30579e-05 6.48902e-05 6.66357e-05 6.82907e-05 6.98526e-05 7.13199e-05 7.2692e-05 7.39691e-05 7.51523e-05 7.62435e-05 7.72451e-05 7.81603e-05 7.89927e-05 7.97462e-05 8.04252e-05 8.10343e-05 8.15781e-05 8.20614e-05 8.24889e-05 8.28654e-05 8.31953e-05 8.34832e-05 8.37332e-05 8.39493e-05 8.41352e-05 8.42945e-05 8.44302e-05 8.45454e-05 8.46428e-05 8.47246e-05 8.47931e-05 8.48501e-05 8.48975e-05 8.49365e-05 8.49686e-05 8.49949e-05 8.50162e-05 8.50335e-05 8.50475e-05 8.50587e-05 8.50677e-05 8.50748e-05 8.50805e-05 8.50849e-05 8.50884e-05 8.50911e-05 8.50932e-05 8.50949e-05 8.50961e-05 8.5097e-05 8.50977e-05 8.50983e-05 8.50986e-05 8.50988e-05 8.50989e-05 8.50989e-05 8.50988e-05 8.50986e-05 8.50983e-05 8.50977e-05 8.5097e-05 8.50961e-05 8.50949e-05 8.50932e-05 8.50911e-05 8.50884e-05 8.50849e-05 8.50805e-05 8.50748e-05 8.50677e-05 8.50587e-05 8.50475e-05 8.50335e-05 8.50162e-05 8.49949e-05 8.49686e-05 8.49365e-05 8.48975e-05 8.48501e-05 8.47931e-05 8.47246e-05 8.46428e-05 8.45454e-05 8.44302e-05 8.42945e-05 8.41352e-05 8.39493e-05 8.37332e-05 8.34832e-05 8.31953e-05 8.28654e-05 8.24889e-05 8.20614e-05 8.15781e-05 8.10343e-05 8.04252e-05 7.97462e-05 7.89927e-05 7.81603e-05 7.72451e-05 7.62435e-05 7.51523e-05 7.39691e-05 7.2692e-05 7.13199e-05 6.98526e-05 6.82907e-05 6.66357e-05 6.48902e-05 6.30579e-05 6.11431e-05 5.91515e-05 5.70896e-05 5.49647e-05 5.27849e-05 5.05593e-05 4.82974e-05 4.60091e-05 4.37048e-05 4.13953e-05 3.9091e-05 3.68027e-05 3.45408e-05 3.23152e-05 3.01354e-05 2.80105e-05 2.59486e-05 2.3957e-05 2.20422e-05 2.02099e-05 1.84644e-05 1.68094e-05 1.52475e-05 1.37802e-05 1.24081e-05 1.1131e-05 9.9478e-06 8.85664e-06 7.85502e-06 6.93982e-06 6.10745e-06 5.35391e-06 4.67487e-06 4.0658e-06 3.52199e-06 3.03871e-06 2.61118e-06 2.23473e-06 1.90478e-06 1.61691e-06 1.36692e-06 1.15083e-06 9.64887e-07 8.05635e-07 6.69867e-07 5.54653e-07 4.57332e-07 3.75502e-07 3.07015e-07 2.49959e-07 2.02644e-07 1.63588e-07 1.31497e-07 1.0525e-07 8.3882e-08 6.65654e-08 5.25964e-08 4.13794e-08 3.24132e-08 2.52785e-08 1.96265e-08 1.51687e-08 1.16673e-08 8.92771e-09 6.79117e-09 5.12859e-09 3.83526e-09 2.82629e-09 2.03255e-09 1.39729e-09 8.73155e-10 4.19491e-10 0 
0 5.51656e-10 1.14823e-09 1.83742e-09 2.67264e-09 3.71615e-09 5.04251e-09 6.74251e-09 8.92771e-09 1.17356e-08 1.53358e-08 1.99368e-08 2.57943e-08 3.32203e-08 4.25938e-08 5.43728e-08 6.91078e-08 8.74568e-08 1.10202e-07 1.38267e-07 1.72737e-07 2.1488e-07 2.66168e-07 3.28298e-07 4.03215e-07 4.93137e-07 6.00572e-07 7.28341e-07 8.79593e-07 1.05782e-06 1.26687e-06 1.51093e-06 1.79457e-06 2.12269e-06 2.5005e-06 2.93353e-06 3.42758e-06 3.98863e-06 4.62283e-06 5.33643e-06 6.13565e-06 7.02665e-06 8.01539e-06 9.10753e-06 1.03083e-05 1.16225e-05 1.3054e-05 1.46063e-05 1.62818e-05 1.80818e-05 2.00068e-05 2.20558e-05 2.42269e-05 2.65166e-05 2.89203e-05 3.1432e-05 3.40445e-05 3.67493e-05 3.95367e-05 4.23959e-05 4.53153e-05 4.82823e-05 5.12839e-05 5.43064e-05 5.73359e-05 6.03584e-05 6.336e-05 6.63271e-05 6.92465e-05 7.21057e-05 7.48931e-05 7.75979e-05 8.02104e-05 8.27221e-05 8.51258e-05 8.74155e-05 8.95866e-05 9.16356e-05 9.35605e-05 9.53606e-05 9.7036e-05 9.85883e-05 0.00010002 0.000101334 0.000102535 0.000103627 0.000104616 0.000105507 0.000106306 0.00010702 0.000107654 0.000108215 0.000108709 0.000109142 0.00010952 0.000109848 0.000110131 0.000110376 0.000110585 0.000110763 0.000110914 0.000111042 0.000111149 0.000111239 0.000111314 0.000111376 0.000111427 0.00011147 0.000111504 0.000111532 0.000111555 0.000111573 0.000111588 0.0001116 0.000111609 0.000111617 0.000111622 0.000111627 0.000111631 0.000111633 0.000111635 0.000111637 0.000111638 0.000111639 0.00011164 0.00011164 0.000111641 0.000111641 0.000111641 0.000111641 0.00011164 0.00011164 0.000111639 0.000111638 0.000111637 0.000111635 0.000111633 0.000111631 0.000111627 0.000111622 0.000111617 0.000111609 0.0001116 0.000111588 0.000111573 0.000111555 0.000111532 0.000111504 0.00011147 0.000111427 0.000111376 0.000111314 0.000111239 0.000111149 0.000111042 0.000110914 0.000110763 0.000110585 0.000110376 0.000110131 0.000109848 0.00010952 0.000109142 0.000108709 0.000108215 0.000107654 0.00010702 0.000106306 0.000105507 0.000104616 0.000103627 0.000102535 0.000101334 0.00010002 9.85883e-05 9.7036e-05 9.53606e-05 9.35605e-05 9.16356e-05 8.95866e-05 8.74155e-05 8.51258e-05 8.27221e-05 8.02104e-05 7.75979e-05 7.48931e-05 7.21057e-05 6.92465e-05 6.63271e-05 6.336e-05 6.03584e-05 5.73359e-05 5.43064e-05 5.12839e-05 4.82823e-05 4.53153e-05 4.23959e-05 3.95367e-05 3.67493e-05 3.40445e-05 3.1432e-05 2.89203e-05 2.65166e-05 2.42269e-05 2.20558e-05 2.00068e-05 1.80818e-05 1.62818e-05 1.46063e-05 1.3054e-05 1.16225e-05 1.03083e-05 9.10753e-06 8.01539e-06 7.02665e-06 6.13565e-06 5.33643e-06 4.62283e-06 3.98863e-06 3.42758e-06 2.93353e-06 2.5005e-06 2.12269e-06 1.79457e-06 1.51093e-06 1.26687e-06 1.05782e-06 8.79593e-07 7.28341e-07 6.00572e-07 4.93137e-07 4.03215e-07 3.28298e-07 2.66168e-07 2.1488e-07 1.72737e-07 1.38267e-07 1.10202e-07 8.74568e-08 6.91078e-08 5.43728e-08 4.25938e-08 3.32203e-08 2.57943e-08 1.99368e-08 1.53358e-08 1.17356e-08 8.92771e-09 6.74251e-09 5.04251e-09 3.71615e-09 2.67264e-09 1.83742e-09 1.14823e-09 5.51656e-10 0 