<?xml version="1.0"?>
<VTKFile type="ImageData" version="0.1" byte_order="LittleEndian">
  <ImageData WholeExtent="0 255 0 255 0 0" Origin="0 0 0" Spacing="1 1 1">
  <Piece Extent="0 255 0 255 0 0">
    <PointData>
      <DataArray type="Float32" Name="scalar_data" format="ascii" >0 0 0 0 0 0 0 0 0 0 0 0 0 0 0 0 0 0 0 0 0 0 0 0 0 0 0 0 0 0 0 0 0 0 0 0 0 0 0 0 0 0 0 0 0 0 0 0 0 0 0 0 0 0 0 0 0 0 0 0 0 0 0 0 0 0 0 0 0 0 0 0 0 0 0 0 0 0 0 0 0 0 0 0 0 0 0 0 0 0 0 0 0 0 0 0 0 0 0 0 0 0 0 0 0 0 0 0 0 0 0 0 0 0 0 0 0 0 0 0 0 0 0 0 0 0 0 0 0 0 0 0 0 0 0 0 0 0 0 0 0 0 0 0 0 0 0 0 0 0 0 0 0 0 0 0 0 0 0 0 0 0 0 0 0 0 0 0 0 0 0 0 0 0 0 0 0 0 0 0 0 0 0 0 0 0 0 0 0 0 0 0 0 0 0 0 0 0 0 0 0 0 0 0 0 0 0 0 0 0 0 0 0 0 0 0 0 0 0 0 0 0 0 0 0 0 0 0 0 0 0 0 0 0 0 0 0 0 0 0 0 0 0 0 0 0 0 0 0 0 0 0 0 0 0 0 
0 0 0 0 0 0 0 0 0 0 0 0 0 0 0 0 0 0 0 0 0 0 0 0 0 0 0 0 0 0 0 0 0 0 0 0 0 0 0 0 0 0 0 0 0 0 1.4013e-45 9.80909e-45 6.44597e-44 3.44719e-43 1.66334e-42 7.18306e-42 2.79307e-41 9.79199e-41 3.10198e-40 8.89453e-40 2.3122e-39 5.45827e-39 1.17213e-38 2.29445e-38 4.10431e-38 6.73e-38 1.0156e-37 1.41753e-37 1.84145e-37 2.24339e-37 2.58598e-37 2.84855e-37 3.02954e-37 3.14177e-37 3.2044e-37 3.23586e-37 3.25009e-37 3.25588e-37 3.25801e-37 3.2587e-37 3.25891e-37 3.25897e-37 3.25898e-37 3.25898e-37 3.25898e-37 3.25898e-37 3.25898e-37 3.25898e-37 3.25898e-37 3.25898e-37 3.25898e-37 3.25898e-37 3.25898e-37 3.25898e-37 3.25898e-37 3.25898e-37 3.25898e-37 3.25898e-37 3.25898e-37 3.25898e-37 3.25898e-37 3.25898e-37 3.25898e-37 3.25898e-37 3.25898e-37 3.25898e-37 3.25898e-37 3.25898e-37 3.25898e-37 3.25898e-37 3.25898e-37 3.25898e-37 3.25898e-37 3.25898e-37 3.25898e-37 3.25898e-37 3.25898e-37 3.25898e-37 3.25898e-37 3.25898e-37 3.25898e-37 3.25898e-37 3.25898e-37 3.25898e-37 3.25898e-37 3.25898e-37 3.25898e-37 3.25898e-37 3.25898e-37 3.25898e-37 3.25898e-37 3.25898e-37 3.25898e-37 3.25898e-37 3.25898e-37 3.25898e-37 3.25898e-37 3.25898e-37 3.25898e-37 3.25898e-37 3.25898e-37 3.25898e-37 3.25898e-37 3.25898e-37 3.25898e-37 3.25898e-37 3.25898e-37 3.25898e-37 3.25898e-37 3.25898e-37 3.25898e-37 3.25898e-37 3.25898e-37 3.25898e-37 3.25898e-37 3.25898e-37 3.25898e-37 3.25898e-37 3.25898e-37 3.25898e-37 3.25898e-37 3.25898e-37 3.25898e-37 3.25898e-37 3.25898e-37 3.25898e-37 3.25898e-37 3.25898e-37 3.25898e-37 3.25898e-37 3.25898e-37 3.25898e-37 3.25898e-37 3.25898e-37 3.25898e-37 3.25898e-37 3.25898e-37 3.25898e-37 3.25898e-37 3.25898e-37 3.25898e-37 3.25898e-37 3.25897e-37 3.25891e-37 3.2587e-37 3.25801e-37 3.25588e-37 3.25009e-37 3.23586e-37 3.2044e-37 3.14177e-37 3.02954e-37 2.84855e-37 2.58598e-37 2.24339e-37 1.84145e-37 1.41753e-37 1.0156e-37 6.73e-38 4.10431e-38 2.29445e-38 1.17213e-38 5.45827e-39 2.3122e-39 8.89453e-40 3.10198e-40 9.79199e-41 2.79307e-41 7.18306e-42 1.66334e-42 3.44719e-43 6.44597e-44 9.80909e-45 1.4013e-45 0 0 0 0 0 0 0 0 0 0 0 0 0 0 0 0 0 0 0 0 0 0 0 0 0 0 0 0 0 0 0 0 0 0 0 0 0 0 0 0 0 0 0 0 0 0 
0 0 0 0 0 0 0 0 0 0 0 0 0 0 0 0 0 0 0 0 0 0 0 0 0 0 0 0 0 0 0 0 0 0 0 0 0 0 0 0 0 0 0 0 0 4.2039e-45 3.50325e-44 2.29813e-43 1.30741e-42 6.64776e-42 3.03858e-41 1.2522e-40 4.66355e-40 1.57269e-39 4.81051e-39 1.33667e-38 3.37895e-38 7.78263e-38 1.636e-37 3.14486e-37 5.54147e-37 8.97754e-37 1.34231e-36 1.86122e-36 2.4076e-36 2.92651e-36 3.37107e-36 3.71467e-36 3.95433e-36 4.10522e-36 4.19099e-36 4.23503e-36 4.25545e-36 4.26401e-36 4.26725e-36 4.26835e-36 4.26869e-36 4.26879e-36 4.26881e-36 4.26882e-36 4.26882e-36 4.26882e-36 4.26882e-36 4.26882e-36 4.26882e-36 4.26882e-36 4.26882e-36 4.26882e-36 4.26882e-36 4.26882e-36 4.26882e-36 4.26882e-36 4.26882e-36 4.26882e-36 4.26882e-36 4.26882e-36 4.26882e-36 4.26882e-36 4.26882e-36 4.26882e-36 4.26882e-36 4.26882e-36 4.26882e-36 4.26882e-36 4.26882e-36 4.26882e-36 4.26882e-36 4.26882e-36 4.26882e-36 4.26882e-36 4.26882e-36 4.26882e-36 4.26882e-36 4.26882e-36 4.26882e-36 4.26882e-36 4.26882e-36 4.26882e-36 4.26882e-36 4.26882e-36 4.26882e-36 4.26882e-36 4.26882e-36 4.26882e-36 4.26882e-36 4.26882e-36 4.26882e-36 4.26882e-36 4.26882e-36 4.26882e-36 4.26882e-36 4.26882e-36 4.26882e-36 4.26882e-36 4.26882e-36 4.26882e-36 4.26882e-36 4.26882e-36 4.26882e-36 4.26882e-36 4.26882e-36 4.26882e-36 4.26882e-36 4.26882e-36 4.26882e-36 4.26882e-36 4.26882e-36 4.26882e-36 4.26882e-36 4.26882e-36 4.26882e-36 4.26882e-36 4.26882e-36 4.26882e-36 4.26882e-36 4.26882e-36 4.26882e-36 4.26882e-36 4.26882e-36 4.26882e-36 4.26882e-36 4.26882e-36 4.26882e-36 4.26882e-36 4.26882e-36 4.26882e-36 4.26882e-36 4.26882e-36 4.26882e-36 4.26882e-36 4.26882e-36 4.26882e-36 4.26882e-36 4.26882e-36 4.26882e-36 4.26882e-36 4.26882e-36 4.26881e-36 4.26879e-36 4.26869e-36 4.26835e-36 4.26725e-36 4.26401e-36 4.25545e-36 4.23503e-36 4.19099e-36 4.10522e-36 3.95433e-36 3.71467e-36 3.37107e-36 2.92651e-36 2.4076e-36 1.86122e-36 1.34231e-36 8.97754e-37 5.54147e-37 3.14486e-37 1.636e-37 7.78263e-38 3.37895e-38 1.33667e-38 4.81051e-39 1.57269e-39 4.66355e-40 1.2522e-40 3.03858e-41 6.64776e-42 1.30741e-42 2.29813e-43 3.50325e-44 4.2039e-45 0 0 0 0 0 0 0 0 0 0 0 0 0 0 0 0 0 0 0 0 0 0 0 0 0 0 0 0 0 0 0 0 0 0 0 0 0 0 0 0 0 0 0 0 0 
0 0 0 0 0 0 0 0 0 0 0 0 0 0 0 0 0 0 0 0 0 0 0 0 0 0 0 0 0 0 0 0 0 0 0 0 0 0 0 0 0 0 0 1.4013e-45 1.54143e-44 1.16308e-43 7.70714e-43 4.59906e-42 2.46124e-41 1.18645e-40 5.16692e-40 2.03757e-39 7.29029e-39 2.37061e-38 7.01635e-38 1.89278e-37 4.66033e-37 1.04877e-36 2.16066e-36 4.08276e-36 7.09229e-36 1.13592e-35 1.68358e-35 2.31977e-35 2.98856e-35 3.62475e-35 4.17241e-35 4.5991e-35 4.90006e-35 5.09227e-35 5.20345e-35 5.26173e-35 5.2894e-35 5.30131e-35 5.30596e-35 5.3076e-35 5.30813e-35 5.30828e-35 5.30832e-35 5.30833e-35 5.30833e-35 5.30833e-35 5.30833e-35 5.30833e-35 5.30833e-35 5.30833e-35 5.30833e-35 5.30833e-35 5.30833e-35 5.30833e-35 5.30833e-35 5.30833e-35 5.30833e-35 5.30833e-35 5.30833e-35 5.30833e-35 5.30833e-35 5.30833e-35 5.30833e-35 5.30833e-35 5.30833e-35 5.30833e-35 5.30833e-35 5.30833e-35 5.30833e-35 5.30833e-35 5.30833e-35 5.30833e-35 5.30833e-35 5.30833e-35 5.30833e-35 5.30833e-35 5.30833e-35 5.30833e-35 5.30833e-35 5.30833e-35 5.30833e-35 5.30833e-35 5.30833e-35 5.30833e-35 5.30833e-35 5.30833e-35 5.30833e-35 5.30833e-35 5.30833e-35 5.30833e-35 5.30833e-35 5.30833e-35 5.30833e-35 5.30833e-35 5.30833e-35 5.30833e-35 5.30833e-35 5.30833e-35 5.30833e-35 5.30833e-35 5.30833e-35 5.30833e-35 5.30833e-35 5.30833e-35 5.30833e-35 5.30833e-35 5.30833e-35 5.30833e-35 5.30833e-35 5.30833e-35 5.30833e-35 5.30833e-35 5.30833e-35 5.30833e-35 5.30833e-35 5.30833e-35 5.30833e-35 5.30833e-35 5.30833e-35 5.30833e-35 5.30833e-35 5.30833e-35 5.30833e-35 5.30833e-35 5.30833e-35 5.30833e-35 5.30833e-35 5.30833e-35 5.30833e-35 5.30833e-35 5.30833e-35 5.30833e-35 5.30833e-35 5.30833e-35 5.30833e-35 5.30833e-35 5.30833e-35 5.30833e-35 5.30833e-35 5.30833e-35 5.30833e-35 5.30832e-35 5.30828e-35 5.30813e-35 5.3076e-35 5.30596e-35 5.30131e-35 5.2894e-35 5.26173e-35 5.20345e-35 5.09227e-35 4.90006e-35 4.5991e-35 4.17241e-35 3.62475e-35 2.98856e-35 2.31977e-35 1.68358e-35 1.13592e-35 7.09229e-36 4.08276e-36 2.16066e-36 1.04877e-36 4.66033e-37 1.89278e-37 7.01635e-38 2.37061e-38 7.29029e-39 2.03757e-39 5.16692e-40 1.18645e-40 2.46124e-41 4.59906e-42 7.70714e-43 1.16308e-43 1.54143e-44 1.4013e-45 0 0 0 0 0 0 0 0 0 0 0 0 0 0 0 0 0 0 0 0 0 0 0 0 0 0 0 0 0 0 0 0 0 0 0 0 0 0 0 0 0 0 0 
0 0 0 0 0 0 0 0 0 0 0 0 0 0 0 0 0 0 0 0 0 0 0 0 0 0 0 0 0 0 0 0 0 0 0 0 0 0 0 0 0 0 4.2039e-45 4.34403e-44 3.46121e-43 2.41584e-42 1.50906e-41 8.48066e-41 4.30129e-40 1.9744e-39 8.22191e-39 3.11223e-38 1.0727e-37 3.37156e-37 9.67654e-37 2.53917e-36 6.09952e-36 1.34313e-35 2.7153e-35 5.04885e-35 8.65394e-35 1.37121e-34 2.01557e-34 2.76074e-34 3.54292e-34 4.28809e-34 4.93245e-34 5.43826e-34 5.79877e-34 6.03213e-34 6.16934e-34 6.24266e-34 6.27827e-34 6.29398e-34 6.30029e-34 6.30258e-34 6.30335e-34 6.30358e-34 6.30364e-34 6.30365e-34 6.30366e-34 6.30366e-34 6.30366e-34 6.30366e-34 6.30366e-34 6.30366e-34 6.30366e-34 6.30366e-34 6.30366e-34 6.30366e-34 6.30366e-34 6.30366e-34 6.30366e-34 6.30366e-34 6.30366e-34 6.30366e-34 6.30366e-34 6.30366e-34 6.30366e-34 6.30366e-34 6.30366e-34 6.30366e-34 6.30366e-34 6.30366e-34 6.30366e-34 6.30366e-34 6.30366e-34 6.30366e-34 6.30366e-34 6.30366e-34 6.30366e-34 6.30366e-34 6.30366e-34 6.30366e-34 6.30366e-34 6.30366e-34 6.30366e-34 6.30366e-34 6.30366e-34 6.30366e-34 6.30366e-34 6.30366e-34 6.30366e-34 6.30366e-34 6.30366e-34 6.30366e-34 6.30366e-34 6.30366e-34 6.30366e-34 6.30366e-34 6.30366e-34 6.30366e-34 6.30366e-34 6.30366e-34 6.30366e-34 6.30366e-34 6.30366e-34 6.30366e-34 6.30366e-34 6.30366e-34 6.30366e-34 6.30366e-34 6.30366e-34 6.30366e-34 6.30366e-34 6.30366e-34 6.30366e-34 6.30366e-34 6.30366e-34 6.30366e-34 6.30366e-34 6.30366e-34 6.30366e-34 6.30366e-34 6.30366e-34 6.30366e-34 6.30366e-34 6.30366e-34 6.30366e-34 6.30366e-34 6.30366e-34 6.30366e-34 6.30366e-34 6.30366e-34 6.30366e-34 6.30366e-34 6.30366e-34 6.30366e-34 6.30366e-34 6.30366e-34 6.30366e-34 6.30366e-34 6.30366e-34 6.30366e-34 6.30366e-34 6.30366e-34 6.30365e-34 6.30364e-34 6.30358e-34 6.30335e-34 6.30258e-34 6.30029e-34 6.29398e-34 6.27827e-34 6.24266e-34 6.16934e-34 6.03213e-34 5.79877e-34 5.43826e-34 4.93245e-34 4.28809e-34 3.54292e-34 2.76074e-34 2.01557e-34 1.37121e-34 8.65394e-35 5.04885e-35 2.7153e-35 1.34313e-35 6.09952e-36 2.53917e-36 9.67654e-37 3.37156e-37 1.0727e-37 3.11223e-38 8.22191e-39 1.9744e-39 4.30129e-40 8.48066e-41 1.50906e-41 2.41584e-42 3.46121e-43 4.34403e-44 4.2039e-45 0 0 0 0 0 0 0 0 0 0 0 0 0 0 0 0 0 0 0 0 0 0 0 0 0 0 0 0 0 0 0 0 0 0 0 0 0 0 0 0 0 0 
0 0 0 0 0 0 0 0 0 0 0 0 0 0 0 0 0 0 0 0 0 0 0 0 0 0 0 0 0 0 0 0 0 0 0 0 0 0 0 0 1.4013e-45 1.26117e-44 1.1911e-43 9.69699e-43 7.07936e-42 4.62919e-41 2.72656e-40 1.45173e-39 7.00732e-39 3.07369e-38 1.2277e-37 4.47304e-37 1.48882e-36 4.533e-36 1.26403e-35 3.23194e-35 7.58605e-35 1.63671e-34 3.25063e-34 5.95346e-34 1.00768e-33 1.58056e-33 2.30525e-33 3.13979e-33 4.01453e-33 4.84906e-33 5.57376e-33 6.14663e-33 6.55897e-33 6.82925e-33 6.99064e-33 7.07845e-33 7.12199e-33 7.14167e-33 7.14978e-33 7.15282e-33 7.15387e-33 7.15419e-33 7.15428e-33 7.15431e-33 7.15431e-33 7.15431e-33 7.15431e-33 7.15431e-33 7.15431e-33 7.15431e-33 7.15431e-33 7.15431e-33 7.15431e-33 7.15431e-33 7.15431e-33 7.15431e-33 7.15431e-33 7.15431e-33 7.15431e-33 7.15431e-33 7.15431e-33 7.15431e-33 7.15431e-33 7.15431e-33 7.15431e-33 7.15431e-33 7.15431e-33 7.15431e-33 7.15431e-33 7.15431e-33 7.15431e-33 7.15431e-33 7.15431e-33 7.15431e-33 7.15431e-33 7.15431e-33 7.15431e-33 7.15431e-33 7.15431e-33 7.15431e-33 7.15431e-33 7.15431e-33 7.15431e-33 7.15431e-33 7.15431e-33 7.15431e-33 7.15431e-33 7.15431e-33 7.15431e-33 7.15431e-33 7.15431e-33 7.15431e-33 7.15431e-33 7.15431e-33 7.15431e-33 7.15431e-33 7.15431e-33 7.15431e-33 7.15431e-33 7.15431e-33 7.15431e-33 7.15431e-33 7.15431e-33 7.15431e-33 7.15431e-33 7.15431e-33 7.15431e-33 7.15431e-33 7.15431e-33 7.15431e-33 7.15431e-33 7.15431e-33 7.15431e-33 7.15431e-33 7.15431e-33 7.15431e-33 7.15431e-33 7.15431e-33 7.15431e-33 7.15431e-33 7.15431e-33 7.15431e-33 7.15431e-33 7.15431e-33 7.15431e-33 7.15431e-33 7.15431e-33 7.15431e-33 7.15431e-33 7.15431e-33 7.15431e-33 7.15431e-33 7.15431e-33 7.15431e-33 7.15431e-33 7.15431e-33 7.15431e-33 7.15431e-33 7.15431e-33 7.15431e-33 7.15431e-33 7.15428e-33 7.15419e-33 7.15387e-33 7.15282e-33 7.14978e-33 7.14167e-33 7.12199e-33 7.07845e-33 6.99064e-33 6.82925e-33 6.55897e-33 6.14663e-33 5.57376e-33 4.84906e-33 4.01453e-33 3.13979e-33 2.30525e-33 1.58056e-33 1.00768e-33 5.95346e-34 3.25063e-34 1.63671e-34 7.58605e-35 3.23194e-35 1.26403e-35 4.533e-36 1.48882e-36 4.47304e-37 1.2277e-37 3.07369e-38 7.00732e-39 1.45173e-39 2.72656e-40 4.62919e-41 7.07936e-42 9.69699e-43 1.1911e-43 1.26117e-44 1.4013e-45 0 0 0 0 0 0 0 0 0 0 0 0 0 0 0 0 0 0 0 0 0 0 0 0 0 0 0 0 0 0 0 0 0 0 0 0 0 0 0 0 
0 0 0 0 0 0 0 0 0 0 0 0 0 0 0 0 0 0 0 0 0 0 0 0 0 0 0 0 0 0 0 0 0 0 0 0 0 0 0 2.8026e-45 3.08286e-44 3.01279e-43 2.56157e-42 1.94794e-41 1.33048e-40 8.19758e-40 4.57262e-39 2.31587e-38 1.06757e-37 4.48867e-37 1.72443e-36 6.06229e-36 1.95286e-35 5.77112e-35 1.56633e-34 3.90846e-34 8.97656e-34 1.89988e-33 3.71083e-33 6.70017e-33 1.12069e-32 1.74109e-32 2.52073e-32 3.41499e-32 4.3511e-32 5.24536e-32 6.025e-32 6.6454e-32 7.09607e-32 7.39501e-32 7.5761e-32 7.67633e-32 7.72701e-32 7.75043e-32 7.76032e-32 7.76414e-32 7.76549e-32 7.76592e-32 7.76605e-32 7.76608e-32 7.76609e-32 7.76609e-32 7.76609e-32 7.76609e-32 7.76609e-32 7.76609e-32 7.76609e-32 7.76609e-32 7.76609e-32 7.76609e-32 7.76609e-32 7.76609e-32 7.76609e-32 7.76609e-32 7.76609e-32 7.76609e-32 7.76609e-32 7.76609e-32 7.76609e-32 7.76609e-32 7.76609e-32 7.76609e-32 7.76609e-32 7.76609e-32 7.76609e-32 7.76609e-32 7.76609e-32 7.76609e-32 7.76609e-32 7.76609e-32 7.76609e-32 7.76609e-32 7.76609e-32 7.76609e-32 7.76609e-32 7.76609e-32 7.76609e-32 7.76609e-32 7.76609e-32 7.76609e-32 7.76609e-32 7.76609e-32 7.76609e-32 7.76609e-32 7.76609e-32 7.76609e-32 7.76609e-32 7.76609e-32 7.76609e-32 7.76609e-32 7.76609e-32 7.76609e-32 7.76609e-32 7.76609e-32 7.76609e-32 7.76609e-32 7.76609e-32 7.76609e-32 7.76609e-32 7.76609e-32 7.76609e-32 7.76609e-32 7.76609e-32 7.76609e-32 7.76609e-32 7.76609e-32 7.76609e-32 7.76609e-32 7.76609e-32 7.76609e-32 7.76609e-32 7.76609e-32 7.76609e-32 7.76609e-32 7.76609e-32 7.76609e-32 7.76609e-32 7.76609e-32 7.76609e-32 7.76609e-32 7.76609e-32 7.76609e-32 7.76609e-32 7.76609e-32 7.76609e-32 7.76609e-32 7.76609e-32 7.76609e-32 7.76609e-32 7.76609e-32 7.76609e-32 7.76609e-32 7.76609e-32 7.76609e-32 7.76609e-32 7.76609e-32 7.76608e-32 7.76605e-32 7.76592e-32 7.76549e-32 7.76414e-32 7.76032e-32 7.75043e-32 7.72701e-32 7.67633e-32 7.5761e-32 7.39501e-32 7.09607e-32 6.6454e-32 6.025e-32 5.24536e-32 4.3511e-32 3.41499e-32 2.52073e-32 1.74109e-32 1.12069e-32 6.70017e-33 3.71083e-33 1.89988e-33 8.97656e-34 3.90846e-34 1.56633e-34 5.77112e-35 1.95286e-35 6.06229e-36 1.72443e-36 4.48867e-37 1.06757e-37 2.31587e-38 4.57262e-39 8.19758e-40 1.33048e-40 1.94794e-41 2.56157e-42 3.01279e-43 3.08286e-44 2.8026e-45 0 0 0 0 0 0 0 0 0 0 0 0 0 0 0 0 0 0 0 0 0 0 0 0 0 0 0 0 0 0 0 0 0 0 0 0 0 0 0 
0 0 0 0 0 0 0 0 0 0 0 0 0 0 0 0 0 0 0 0 0 0 0 0 0 0 0 0 0 0 0 0 0 0 0 0 0 0 5.60519e-45 7.28675e-44 7.20267e-43 6.3661e-42 5.04047e-41 3.58971e-40 2.3095e-39 1.34704e-38 7.14397e-38 3.45367e-37 1.5252e-36 6.16403e-36 2.2833e-35 7.76258e-35 2.42496e-34 6.9682e-34 1.84371e-33 4.49629e-33 1.01172e-32 2.10292e-32 4.04326e-32 7.20294e-32 1.19137e-31 1.83425e-31 2.63713e-31 3.55461e-31 4.51383e-31 5.43131e-31 6.2342e-31 6.87707e-31 7.34815e-31 7.66412e-31 7.85815e-31 7.96727e-31 8.02348e-31 8.05e-31 8.06147e-31 8.06602e-31 8.06767e-31 8.06821e-31 8.06838e-31 8.06843e-31 8.06844e-31 8.06844e-31 8.06844e-31 8.06844e-31 8.06844e-31 8.06844e-31 8.06844e-31 8.06844e-31 8.06844e-31 8.06844e-31 8.06844e-31 8.06844e-31 8.06844e-31 8.06844e-31 8.06844e-31 8.06844e-31 8.06844e-31 8.06844e-31 8.06844e-31 8.06844e-31 8.06844e-31 8.06844e-31 8.06844e-31 8.06844e-31 8.06844e-31 8.06844e-31 8.06844e-31 8.06844e-31 8.06844e-31 8.06844e-31 8.06844e-31 8.06844e-31 8.06844e-31 8.06844e-31 8.06844e-31 8.06844e-31 8.06844e-31 8.06844e-31 8.06844e-31 8.06844e-31 8.06844e-31 8.06844e-31 8.06844e-31 8.06844e-31 8.06844e-31 8.06844e-31 8.06844e-31 8.06844e-31 8.06844e-31 8.06844e-31 8.06844e-31 8.06844e-31 8.06844e-31 8.06844e-31 8.06844e-31 8.06844e-31 8.06844e-31 8.06844e-31 8.06844e-31 8.06844e-31 8.06844e-31 8.06844e-31 8.06844e-31 8.06844e-31 8.06844e-31 8.06844e-31 8.06844e-31 8.06844e-31 8.06844e-31 8.06844e-31 8.06844e-31 8.06844e-31 8.06844e-31 8.06844e-31 8.06844e-31 8.06844e-31 8.06844e-31 8.06844e-31 8.06844e-31 8.06844e-31 8.06844e-31 8.06844e-31 8.06844e-31 8.06844e-31 8.06844e-31 8.06844e-31 8.06844e-31 8.06844e-31 8.06844e-31 8.06844e-31 8.06844e-31 8.06844e-31 8.06844e-31 8.06844e-31 8.06844e-31 8.06844e-31 8.06843e-31 8.06838e-31 8.06821e-31 8.06767e-31 8.06602e-31 8.06147e-31 8.05e-31 8.02348e-31 7.96727e-31 7.85815e-31 7.66412e-31 7.34815e-31 6.87707e-31 6.2342e-31 5.43131e-31 4.51383e-31 3.55461e-31 2.63713e-31 1.83425e-31 1.19137e-31 7.20294e-32 4.04326e-32 2.10292e-32 1.01172e-32 4.49629e-33 1.84371e-33 6.9682e-34 2.42496e-34 7.76258e-35 2.2833e-35 6.16403e-36 1.5252e-36 3.45367e-37 7.14397e-38 1.34704e-38 2.3095e-39 3.58971e-40 5.04047e-41 6.3661e-42 7.20267e-43 7.28675e-44 5.60519e-45 0 0 0 0 0 0 0 0 0 0 0 0 0 0 0 0 0 0 0 0 0 0 0 0 0 0 0 0 0 0 0 0 0 0 0 0 0 0 
0 0 0 0 0 0 0 0 0 0 0 0 0 0 0 0 0 0 0 0 0 0 0 0 0 0 0 0 0 0 0 0 0 0 0 0 1.4013e-45 1.4013e-44 1.58347e-43 1.6241e-42 1.4921e-41 1.22825e-40 9.10719e-40 6.108e-39 3.71863e-38 2.06133e-37 1.04304e-36 4.82821e-36 2.04835e-35 7.97701e-35 2.85552e-34 9.40711e-34 2.85502e-33 7.99032e-33 2.06407e-32 4.92602e-32 1.0872e-31 2.22156e-31 4.20838e-31 7.40251e-31 1.21149e-30 1.84933e-30 2.64127e-30 3.54307e-30 4.48479e-30 5.38659e-30 6.17853e-30 6.81638e-30 7.28761e-30 7.60702e-30 7.80571e-30 7.91914e-30 7.9786e-30 8.00722e-30 8.01987e-30 8.02501e-30 8.02692e-30 8.02758e-30 8.02778e-30 8.02784e-30 8.02786e-30 8.02786e-30 8.02786e-30 8.02786e-30 8.02786e-30 8.02786e-30 8.02786e-30 8.02786e-30 8.02786e-30 8.02786e-30 8.02786e-30 8.02786e-30 8.02786e-30 8.02786e-30 8.02786e-30 8.02786e-30 8.02786e-30 8.02786e-30 8.02786e-30 8.02786e-30 8.02786e-30 8.02786e-30 8.02786e-30 8.02786e-30 8.02786e-30 8.02786e-30 8.02786e-30 8.02786e-30 8.02786e-30 8.02786e-30 8.02786e-30 8.02786e-30 8.02786e-30 8.02786e-30 8.02786e-30 8.02786e-30 8.02786e-30 8.02786e-30 8.02786e-30 8.02786e-30 8.02786e-30 8.02786e-30 8.02786e-30 8.02786e-30 8.02786e-30 8.02786e-30 8.02786e-30 8.02786e-30 8.02786e-30 8.02786e-30 8.02786e-30 8.02786e-30 8.02786e-30 8.02786e-30 8.02786e-30 8.02786e-30 8.02786e-30 8.02786e-30 8.02786e-30 8.02786e-30 8.02786e-30 8.02786e-30 8.02786e-30 8.02786e-30 8.02786e-30 8.02786e-30 8.02786e-30 8.02786e-30 8.02786e-30 8.02786e-30 8.02786e-30 8.02786e-30 8.02786e-30 8.02786e-30 8.02786e-30 8.02786e-30 8.02786e-30 8.02786e-30 8.02786e-30 8.02786e-30 8.02786e-30 8.02786e-30 8.02786e-30 8.02786e-30 8.02786e-30 8.02786e-30 8.02786e-30 8.02786e-30 8.02786e-30 8.02786e-30 8.02786e-30 8.02786e-30 8.02786e-30 8.02786e-30 8.02786e-30 8.02786e-30 8.02784e-30 8.02778e-30 8.02758e-30 8.02692e-30 8.02501e-30 8.01987e-30 8.00722e-30 7.9786e-30 7.91914e-30 7.80571e-30 7.60702e-30 7.28761e-30 6.81638e-30 6.17853e-30 5.38659e-30 4.48479e-30 3.54307e-30 2.64127e-30 1.84933e-30 1.21149e-30 7.40251e-31 4.20838e-31 2.22156e-31 1.0872e-31 4.92602e-32 2.06407e-32 7.99032e-33 2.85502e-33 9.40711e-34 2.85552e-34 7.97701e-35 2.04835e-35 4.82821e-36 1.04304e-36 2.06133e-37 3.71863e-38 6.108e-39 9.10719e-40 1.22825e-40 1.4921e-41 1.6241e-42 1.58347e-43 1.4013e-44 1.4013e-45 0 0 0 0 0 0 0 0 0 0 0 0 0 0 0 0 0 0 0 0 0 0 0 0 0 0 0 0 0 0 0 0 0 0 0 0 
0 0 0 0 0 0 0 0 0 0 0 0 0 0 0 0 0 0 0 0 0 0 0 0 0 0 0 0 0 0 0 0 0 0 0 1.4013e-45 2.66247e-44 3.237e-43 3.46401e-42 3.3016e-41 2.82266e-40 2.17588e-39 1.51893e-38 9.63687e-38 5.57396e-37 2.94679e-36 1.42709e-35 6.34293e-35 2.59159e-34 9.74724e-34 3.37877e-33 1.08058e-32 3.19144e-32 8.71229e-32 2.20022e-31 5.14483e-31 1.11496e-30 2.24181e-30 4.18748e-30 7.27781e-30 1.1792e-29 1.78551e-29 2.53415e-29 3.38381e-29 4.27009e-29 5.11975e-29 5.86839e-29 6.4747e-29 6.92611e-29 7.23515e-29 7.42971e-29 7.5424e-29 7.60245e-29 7.63189e-29 7.64518e-29 7.6507e-29 7.65281e-29 7.65356e-29 7.6538e-29 7.65387e-29 7.65389e-29 7.65389e-29 7.65389e-29 7.65389e-29 7.65389e-29 7.65389e-29 7.65389e-29 7.65389e-29 7.65389e-29 7.65389e-29 7.65389e-29 7.65389e-29 7.65389e-29 7.65389e-29 7.65389e-29 7.65389e-29 7.65389e-29 7.65389e-29 7.65389e-29 7.65389e-29 7.65389e-29 7.65389e-29 7.65389e-29 7.65389e-29 7.65389e-29 7.65389e-29 7.65389e-29 7.65389e-29 7.65389e-29 7.65389e-29 7.65389e-29 7.65389e-29 7.65389e-29 7.65389e-29 7.65389e-29 7.65389e-29 7.65389e-29 7.65389e-29 7.65389e-29 7.65389e-29 7.65389e-29 7.65389e-29 7.65389e-29 7.65389e-29 7.65389e-29 7.65389e-29 7.65389e-29 7.65389e-29 7.65389e-29 7.65389e-29 7.65389e-29 7.65389e-29 7.65389e-29 7.65389e-29 7.65389e-29 7.65389e-29 7.65389e-29 7.65389e-29 7.65389e-29 7.65389e-29 7.65389e-29 7.65389e-29 7.65389e-29 7.65389e-29 7.65389e-29 7.65389e-29 7.65389e-29 7.65389e-29 7.65389e-29 7.65389e-29 7.65389e-29 7.65389e-29 7.65389e-29 7.65389e-29 7.65389e-29 7.65389e-29 7.65389e-29 7.65389e-29 7.65389e-29 7.65389e-29 7.65389e-29 7.65389e-29 7.65389e-29 7.65389e-29 7.65389e-29 7.65389e-29 7.65389e-29 7.65389e-29 7.65389e-29 7.65389e-29 7.65389e-29 7.65389e-29 7.65389e-29 7.65389e-29 7.65389e-29 7.65389e-29 7.65387e-29 7.6538e-29 7.65356e-29 7.65281e-29 7.6507e-29 7.64518e-29 7.63189e-29 7.60245e-29 7.5424e-29 7.42971e-29 7.23515e-29 6.92611e-29 6.4747e-29 5.86839e-29 5.11975e-29 4.27009e-29 3.38381e-29 2.53415e-29 1.78551e-29 1.1792e-29 7.27781e-30 4.18748e-30 2.24181e-30 1.11496e-30 5.14483e-31 2.20022e-31 8.71229e-32 3.19144e-32 1.08058e-32 3.37877e-33 9.74724e-34 2.59159e-34 6.34293e-35 1.42709e-35 2.94679e-36 5.57396e-37 9.63687e-38 1.51893e-38 2.17588e-39 2.82266e-40 3.3016e-41 3.46401e-42 3.237e-43 2.66247e-44 1.4013e-45 0 0 0 0 0 0 0 0 0 0 0 0 0 0 0 0 0 0 0 0 0 0 0 0 0 0 0 0 0 0 0 0 0 0 0 
0 0 0 0 0 0 0 0 0 0 0 0 0 0 0 0 0 0 0 0 0 0 0 0 0 0 0 0 0 0 0 0 0 0 2.8026e-45 5.04467e-44 6.31986e-43 6.99528e-42 6.9084e-41 6.12543e-40 4.90233e-39 3.55688e-38 2.34817e-37 1.41492e-36 7.80235e-36 3.94626e-35 1.83421e-34 7.84755e-34 3.09495e-33 1.12652e-32 3.78838e-32 1.17817e-31 3.3914e-31 9.04304e-31 2.23543e-30 5.12719e-30 1.09211e-29 2.1626e-29 3.98614e-29 6.8495e-29 1.0993e-28 1.65178e-28 2.33038e-28 3.09813e-28 3.89814e-28 4.6659e-28 5.3445e-28 5.89697e-28 6.31133e-28 6.59766e-28 6.78002e-28 6.88707e-28 6.945e-28 6.97392e-28 6.98723e-28 6.99288e-28 6.9951e-28 6.9959e-28 6.99616e-28 6.99624e-28 6.99627e-28 6.99627e-28 6.99628e-28 6.99628e-28 6.99628e-28 6.99628e-28 6.99628e-28 6.99628e-28 6.99628e-28 6.99628e-28 6.99628e-28 6.99628e-28 6.99628e-28 6.99628e-28 6.99628e-28 6.99628e-28 6.99628e-28 6.99628e-28 6.99628e-28 6.99628e-28 6.99628e-28 6.99628e-28 6.99628e-28 6.99628e-28 6.99628e-28 6.99628e-28 6.99628e-28 6.99628e-28 6.99628e-28 6.99628e-28 6.99628e-28 6.99628e-28 6.99628e-28 6.99628e-28 6.99628e-28 6.99628e-28 6.99628e-28 6.99628e-28 6.99628e-28 6.99628e-28 6.99628e-28 6.99628e-28 6.99628e-28 6.99628e-28 6.99628e-28 6.99628e-28 6.99628e-28 6.99628e-28 6.99628e-28 6.99628e-28 6.99628e-28 6.99628e-28 6.99628e-28 6.99628e-28 6.99628e-28 6.99628e-28 6.99628e-28 6.99628e-28 6.99628e-28 6.99628e-28 6.99628e-28 6.99628e-28 6.99628e-28 6.99628e-28 6.99628e-28 6.99628e-28 6.99628e-28 6.99628e-28 6.99628e-28 6.99628e-28 6.99628e-28 6.99628e-28 6.99628e-28 6.99628e-28 6.99628e-28 6.99628e-28 6.99628e-28 6.99628e-28 6.99628e-28 6.99628e-28 6.99628e-28 6.99628e-28 6.99628e-28 6.99628e-28 6.99628e-28 6.99628e-28 6.99628e-28 6.99628e-28 6.99628e-28 6.99628e-28 6.99628e-28 6.99628e-28 6.99628e-28 6.99628e-28 6.99627e-28 6.99627e-28 6.99624e-28 6.99616e-28 6.9959e-28 6.9951e-28 6.99288e-28 6.98723e-28 6.97392e-28 6.945e-28 6.88707e-28 6.78002e-28 6.59766e-28 6.31133e-28 5.89697e-28 5.3445e-28 4.6659e-28 3.89814e-28 3.09813e-28 2.33038e-28 1.65178e-28 1.0993e-28 6.8495e-29 3.98614e-29 2.1626e-29 1.09211e-29 5.12719e-30 2.23543e-30 9.04304e-31 3.3914e-31 1.17817e-31 3.78838e-32 1.12652e-32 3.09495e-33 7.84755e-34 1.83421e-34 3.94626e-35 7.80235e-36 1.41492e-36 2.34817e-37 3.55688e-38 4.90233e-39 6.12543e-40 6.9084e-41 6.99528e-42 6.31986e-43 5.04467e-44 2.8026e-45 0 0 0 0 0 0 0 0 0 0 0 0 0 0 0 0 0 0 0 0 0 0 0 0 0 0 0 0 0 0 0 0 0 0 
0 0 0 0 0 0 0 0 0 0 0 0 0 0 0 0 0 0 0 0 0 0 0 0 0 0 0 0 0 0 0 0 0 5.60519e-45 9.10844e-44 1.17008e-42 1.33894e-41 1.3682e-40 1.25665e-39 1.04284e-38 7.85368e-38 5.3875e-37 3.37697e-36 1.93935e-35 1.02275e-34 4.96274e-34 2.21943e-33 9.16135e-33 3.49476e-32 1.23334e-31 4.03066e-31 1.22085e-30 3.42988e-30 8.94445e-30 2.16675e-29 4.87963e-29 1.02251e-28 1.99569e-28 3.63239e-28 6.17464e-28 9.82094e-28 1.46491e-27 2.05502e-27 2.72068e-27 3.41361e-27 4.07927e-27 4.66938e-27 5.1522e-27 5.51683e-27 5.77105e-27 5.93472e-27 6.03204e-27 6.08549e-27 6.11262e-27 6.12535e-27 6.13086e-27 6.13307e-27 6.13389e-27 6.13417e-27 6.13426e-27 6.13428e-27 6.13429e-27 6.13429e-27 6.13429e-27 6.13429e-27 6.13429e-27 6.13429e-27 6.13429e-27 6.13429e-27 6.13429e-27 6.13429e-27 6.13429e-27 6.13429e-27 6.13429e-27 6.13429e-27 6.13429e-27 6.13429e-27 6.13429e-27 6.13429e-27 6.13429e-27 6.13429e-27 6.13429e-27 6.13429e-27 6.13429e-27 6.13429e-27 6.13429e-27 6.13429e-27 6.13429e-27 6.13429e-27 6.13429e-27 6.13429e-27 6.13429e-27 6.13429e-27 6.13429e-27 6.13429e-27 6.13429e-27 6.13429e-27 6.13429e-27 6.13429e-27 6.13429e-27 6.13429e-27 6.13429e-27 6.13429e-27 6.13429e-27 6.13429e-27 6.13429e-27 6.13429e-27 6.13429e-27 6.13429e-27 6.13429e-27 6.13429e-27 6.13429e-27 6.13429e-27 6.13429e-27 6.13429e-27 6.13429e-27 6.13429e-27 6.13429e-27 6.13429e-27 6.13429e-27 6.13429e-27 6.13429e-27 6.13429e-27 6.13429e-27 6.13429e-27 6.13429e-27 6.13429e-27 6.13429e-27 6.13429e-27 6.13429e-27 6.13429e-27 6.13429e-27 6.13429e-27 6.13429e-27 6.13429e-27 6.13429e-27 6.13429e-27 6.13429e-27 6.13429e-27 6.13429e-27 6.13429e-27 6.13429e-27 6.13429e-27 6.13429e-27 6.13429e-27 6.13429e-27 6.13429e-27 6.13429e-27 6.13429e-27 6.13429e-27 6.13429e-27 6.13429e-27 6.13429e-27 6.13429e-27 6.13429e-27 6.13428e-27 6.13426e-27 6.13417e-27 6.13389e-27 6.13307e-27 6.13086e-27 6.12535e-27 6.11262e-27 6.08549e-27 6.03204e-27 5.93472e-27 5.77105e-27 5.51683e-27 5.1522e-27 4.66938e-27 4.07927e-27 3.41361e-27 2.72068e-27 2.05502e-27 1.46491e-27 9.82094e-28 6.17464e-28 3.63239e-28 1.99569e-28 1.02251e-28 4.87963e-29 2.16675e-29 8.94445e-30 3.42988e-30 1.22085e-30 4.03066e-31 1.23334e-31 3.49476e-32 9.16135e-33 2.21943e-33 4.96274e-34 1.02275e-34 1.93935e-35 3.37697e-36 5.3875e-37 7.85368e-38 1.04284e-38 1.25665e-39 1.3682e-40 1.33894e-41 1.17008e-42 9.10844e-44 5.60519e-45 0 0 0 0 0 0 0 0 0 0 0 0 0 0 0 0 0 0 0 0 0 0 0 0 0 0 0 0 0 0 0 0 0 
0 0 0 0 0 0 0 0 0 0 0 0 0 0 0 0 0 0 0 0 0 0 0 0 0 0 0 0 0 0 0 0 8.40779e-45 1.54143e-43 2.05711e-42 2.42999e-41 2.56712e-40 2.43967e-39 2.09683e-38 1.63707e-37 1.16538e-36 7.58841e-36 4.53203e-35 2.48832e-34 1.25852e-33 5.87355e-33 2.5332e-32 1.01093e-31 3.73708e-31 1.28093e-30 4.07448e-30 1.20366e-29 3.30469e-29 8.43827e-29 2.00529e-28 4.43839e-28 9.1573e-28 1.76291e-27 3.17051e-27 5.33454e-27 8.4123e-27 1.2461e-26 1.73862e-26 2.29262e-26 2.86879e-26 3.4228e-26 3.91532e-26 4.32018e-26 4.62796e-26 4.84436e-26 4.98512e-26 5.06984e-26 5.11703e-26 5.14136e-26 5.15298e-26 5.15811e-26 5.16021e-26 5.16101e-26 5.16129e-26 5.16138e-26 5.1614e-26 5.16141e-26 5.16141e-26 5.16141e-26 5.16141e-26 5.16141e-26 5.16141e-26 5.16141e-26 5.16141e-26 5.16141e-26 5.16141e-26 5.16141e-26 5.16141e-26 5.16141e-26 5.16141e-26 5.16141e-26 5.16141e-26 5.16141e-26 5.16141e-26 5.16141e-26 5.16141e-26 5.16141e-26 5.16141e-26 5.16141e-26 5.16141e-26 5.16141e-26 5.16141e-26 5.16141e-26 5.16141e-26 5.16141e-26 5.16141e-26 5.16141e-26 5.16141e-26 5.16141e-26 5.16141e-26 5.16141e-26 5.16141e-26 5.16141e-26 5.16141e-26 5.16141e-26 5.16141e-26 5.16141e-26 5.16141e-26 5.16141e-26 5.16141e-26 5.16141e-26 5.16141e-26 5.16141e-26 5.16141e-26 5.16141e-26 5.16141e-26 5.16141e-26 5.16141e-26 5.16141e-26 5.16141e-26 5.16141e-26 5.16141e-26 5.16141e-26 5.16141e-26 5.16141e-26 5.16141e-26 5.16141e-26 5.16141e-26 5.16141e-26 5.16141e-26 5.16141e-26 5.16141e-26 5.16141e-26 5.16141e-26 5.16141e-26 5.16141e-26 5.16141e-26 5.16141e-26 5.16141e-26 5.16141e-26 5.16141e-26 5.16141e-26 5.16141e-26 5.16141e-26 5.16141e-26 5.16141e-26 5.16141e-26 5.16141e-26 5.16141e-26 5.16141e-26 5.16141e-26 5.16141e-26 5.16141e-26 5.16141e-26 5.16141e-26 5.16141e-26 5.16141e-26 5.16141e-26 5.16141e-26 5.16141e-26 5.1614e-26 5.16138e-26 5.16129e-26 5.16101e-26 5.16021e-26 5.15811e-26 5.15298e-26 5.14136e-26 5.11703e-26 5.06984e-26 4.98512e-26 4.84436e-26 4.62796e-26 4.32018e-26 3.91532e-26 3.4228e-26 2.86879e-26 2.29262e-26 1.73862e-26 1.2461e-26 8.4123e-27 5.33454e-27 3.17051e-27 1.76291e-27 9.1573e-28 4.43839e-28 2.00529e-28 8.43827e-29 3.30469e-29 1.20366e-29 4.07448e-30 1.28093e-30 3.73708e-31 1.01093e-31 2.5332e-32 5.87355e-33 1.25852e-33 2.48832e-34 4.53203e-35 7.58841e-36 1.16538e-36 1.63707e-37 2.09683e-38 2.43967e-39 2.56712e-40 2.42999e-41 2.05711e-42 1.54143e-43 8.40779e-45 0 0 0 0 0 0 0 0 0 0 0 0 0 0 0 0 0 0 0 0 0 0 0 0 0 0 0 0 0 0 0 0 