<?xml version="1.0"?>
<VTKFile type="ImageData" version="0.1" byte_order="LittleEndian">
  <ImageData WholeExtent="0 255 0 255 0 0" Origin="0 0 0" Spacing="1 1 1">
  <Piece Extent="0 255 0 255 0 0">
    <PointData>
      <DataArray type="Float32" Name="scalar_data" format="ascii" >0 0 0 0 0 0 0 0 0 0 0 0 0 0 0 0 0 0 0 0 0 0 0 0 0 0 0 0 0 0 0 0 0 0 0 0 0 0 0 0 0 0 0 0 0 0 0 0 0 0 0 0 0 0 0 0 0 0 0 0 0 0 0 0 0 0 0 0 0 0 0 0 0 0 0 0 0 0 0 0 0 0 0 0 0 0 0 0 0 0 0 0 0 0 0 0 0 0 0 0 0 0 0 0 0 0 0 0 0 0 0 0 0 0 0 0 0 0 0 0 0 0 0 0 0 0 0 0 0 0 0 0 0 0 0 0 0 0 0 0 0 0 0 0 0 0 0 0 0 0 0 0 0 0 0 0 0 0 0 0 0 0 0 0 0 0 0 0 0 0 0 0 0 0 0 0 0 0 0 0 0 0 0 0 0 0 0 0 0 0 0 0 0 0 0 0 0 0 0 0 0 0 0 0 0 0 0 0 0 0 0 0 0 0 0 0 0 0 0 0 0 0 0 0 0 0 0 0 0 0 0 0 0 0 0 0 0 0 0 0 0 0 0 0 0 0 0 0 0 0 0 0 0 0 0 0 
0 3.46916e-13 7.38536e-13 1.22426e-12 1.86321e-12 2.7301e-12 3.92212e-12 5.56763e-12 7.83689e-12 1.09556e-11 1.52221e-11 2.10284e-11 2.88873e-11 3.94649e-11 5.36211e-11 7.24589e-11 9.73834e-11 1.30173e-10 1.73062e-10 2.28842e-10 3.00969e-10 3.93701e-10 5.12241e-10 6.62903e-10 8.53291e-10 1.0925e-09 1.39133e-09 1.76249e-09 2.22083e-09 2.7836e-09 3.47061e-09 4.30447e-09 5.31074e-09 6.5181e-09 7.95838e-09 9.66666e-09 1.16811e-08 1.4043e-08 1.67962e-08 1.99871e-08 2.36641e-08 2.78767e-08 3.26751e-08 3.81093e-08 4.42282e-08 5.10781e-08 5.87024e-08 6.71394e-08 7.64221e-08 8.65763e-08 9.76197e-08 1.09561e-07 1.22398e-07 1.3612e-07 1.50701e-07 1.66107e-07 1.82291e-07 1.99193e-07 2.16743e-07 2.34861e-07 2.53457e-07 2.72434e-07 2.91688e-07 3.1111e-07 3.30588e-07 3.5001e-07 3.69264e-07 3.88241e-07 4.06837e-07 4.24955e-07 4.42505e-07 4.59407e-07 4.7559e-07 4.90996e-07 5.05578e-07 5.19299e-07 5.32137e-07 5.44078e-07 5.55121e-07 5.65275e-07 5.74558e-07 5.82995e-07 5.90619e-07 5.97469e-07 6.03588e-07 6.09022e-07 6.13821e-07 6.18033e-07 6.2171e-07 6.24901e-07 6.27655e-07 6.30016e-07 6.32031e-07 6.33739e-07 6.35179e-07 6.36387e-07 6.37393e-07 6.38227e-07 6.38914e-07 6.39477e-07 6.39935e-07 6.40306e-07 6.40605e-07 6.40844e-07 6.41035e-07 6.41185e-07 6.41304e-07 6.41397e-07 6.41469e-07 6.41524e-07 6.41567e-07 6.416e-07 6.41625e-07 6.41644e-07 6.41658e-07 6.41669e-07 6.41676e-07 6.41682e-07 6.41687e-07 6.4169e-07 6.41692e-07 6.41694e-07 6.41695e-07 6.41695e-07 6.41696e-07 6.41696e-07 6.41697e-07 6.41697e-07 6.41697e-07 6.41697e-07 6.41696e-07 6.41696e-07 6.41695e-07 6.41695e-07 6.41694e-07 6.41692e-07 6.4169e-07 6.41687e-07 6.41682e-07 6.41676e-07 6.41669e-07 6.41658e-07 6.41644e-07 6.41625e-07 6.416e-07 6.41567e-07 6.41524e-07 6.41469e-07 6.41397e-07 6.41304e-07 6.41185e-07 6.41035e-07 6.40844e-07 6.40605e-07 6.40306e-07 6.39935e-07 6.39477e-07 6.38914e-07 6.38227e-07 6.37393e-07 6.36387e-07 6.35179e-07 6.33739e-07 6.32031e-07 6.30016e-07 6.27655e-07 6.24901e-07 6.2171e-07 6.18033e-07 6.13821e-07 6.09022e-07 6.03588e-07 5.97469e-07 5.90619e-07 5.82995e-07 5.74558e-07 5.65275e-07 5.55121e-07 5.44078e-07 5.32137e-07 5.19299e-07 5.05578e-07 4.90996e-07 4.7559e-07 4.59407e-07 4.42505e-07 4.24955e-07 4.06837e-07 3.88241e-07 3.69264e-07 3.5001e-07 3.30588e-07 3.1111e-07 2.91688e-07 2.72434e-07 2.53457e-07 2.34861e-07 2.16743e-07 1.99193e-07 1.82291e-07 1.66107e-07 1.50701e-07 1.3612e-07 1.22398e-07 1.09561e-07 9.76197e-08 8.65763e-08 7.64221e-08 6.71394e-08 5.87024e-08 5.10781e-08 4.42282e-08 3.81093e-08 3.26751e-08 2.78767e-08 2.36641e-08 1.99871e-08 1.67962e-08 1.4043e-08 1.16811e-08 9.66666e-09 7.95838e-09 6.5181e-09 5.31074e-09 4.30447e-09 3.47061e-09 2.7836e-09 2.22083e-09 1.76249e-09 1.39133e-09 1.0925e-09 8.53291e-10 6.62903e-10 5.12241e-10 3.93701e-10 3.00969e-10 2.28842e-10 1.73062e-10 1.30173e-10 9.73834e-11 7.24589e-11 5.36211e-11 3.94649e-11 2.88873e-11 2.10284e-11 1.52221e-11 1.09556e-11 7.83689e-12 5.56763e-12 3.92212e-12 2.7301e-12 1.86321e-12 1.22426e-12 7.38536e-13 3.46916e-13 0 
0 7.38536e-13 1.57221e-12 2.60613e-12 3.96614e-12 5.81116e-12 8.34802e-12 1.18498e-11 1.66786e-11 2.33146e-11 3.23923e-11 4.47457e-11 6.14652e-11 8.39675e-11 1.14081e-10 1.54152e-10 2.07167e-10 2.76908e-10 3.68127e-10 4.86755e-10 6.40145e-10 8.37345e-10 1.08942e-09 1.40978e-09 1.8146e-09 2.32321e-09 2.95856e-09 3.74765e-09 4.72209e-09 5.91848e-09 7.37894e-09 9.15151e-09 1.12905e-08 1.38569e-08 1.69183e-08 2.05492e-08 2.48308e-08 2.98507e-08 3.57021e-08 4.24837e-08 5.0298e-08 5.92504e-08 6.94476e-08 8.09958e-08 9.39985e-08 1.08555e-07 1.24756e-07 1.42684e-07 1.62408e-07 1.83984e-07 2.07449e-07 2.32822e-07 2.60098e-07 2.89253e-07 3.20234e-07 3.52968e-07 3.87352e-07 4.23262e-07 4.6055e-07 4.99044e-07 5.38554e-07 5.78873e-07 6.1978e-07 6.61044e-07 7.02427e-07 7.43691e-07 7.84598e-07 8.24917e-07 8.64427e-07 9.02921e-07 9.40209e-07 9.76119e-07 1.0105e-06 1.04324e-06 1.07422e-06 1.10337e-06 1.13065e-06 1.15602e-06 1.17949e-06 1.20106e-06 1.22079e-06 1.23872e-06 1.25492e-06 1.26947e-06 1.28248e-06 1.29402e-06 1.30422e-06 1.31317e-06 1.32099e-06 1.32777e-06 1.33362e-06 1.33864e-06 1.34292e-06 1.34655e-06 1.34961e-06 1.35218e-06 1.35432e-06 1.35609e-06 1.35755e-06 1.35875e-06 1.35972e-06 1.36051e-06 1.36115e-06 1.36166e-06 1.36206e-06 1.36238e-06 1.36263e-06 1.36283e-06 1.36298e-06 1.3631e-06 1.36319e-06 1.36326e-06 1.36332e-06 1.36336e-06 1.36339e-06 1.36341e-06 1.36343e-06 1.36344e-06 1.36345e-06 1.36345e-06 1.36346e-06 1.36346e-06 1.36347e-06 1.36347e-06 1.36347e-06 1.36347e-06 1.36347e-06 1.36347e-06 1.36347e-06 1.36347e-06 1.36347e-06 1.36347e-06 1.36347e-06 1.36347e-06 1.36346e-06 1.36346e-06 1.36345e-06 1.36345e-06 1.36344e-06 1.36343e-06 1.36341e-06 1.36339e-06 1.36336e-06 1.36332e-06 1.36326e-06 1.36319e-06 1.3631e-06 1.36298e-06 1.36283e-06 1.36263e-06 1.36238e-06 1.36206e-06 1.36166e-06 1.36115e-06 1.36051e-06 1.35972e-06 1.35875e-06 1.35755e-06 1.35609e-06 1.35432e-06 1.35218e-06 1.34961e-06 1.34655e-06 1.34292e-06 1.33864e-06 1.33362e-06 1.32777e-06 1.32099e-06 1.31317e-06 1.30422e-06 1.29402e-06 1.28248e-06 1.26947e-06 1.25492e-06 1.23872e-06 1.22079e-06 1.20106e-06 1.17949e-06 1.15602e-06 1.13065e-06 1.10337e-06 1.07422e-06 1.04324e-06 1.0105e-06 9.76119e-07 9.40209e-07 9.02921e-07 8.64427e-07 8.24917e-07 7.84598e-07 7.43691e-07 7.02427e-07 6.61044e-07 6.1978e-07 5.78873e-07 5.38554e-07 4.99044e-07 4.6055e-07 4.23262e-07 3.87352e-07 3.52968e-07 3.20234e-07 2.89253e-07 2.60098e-07 2.32822e-07 2.07449e-07 1.83984e-07 1.62408e-07 1.42684e-07 1.24756e-07 1.08555e-07 9.39985e-08 8.09958e-08 6.94476e-08 5.92504e-08 5.0298e-08 4.24837e-08 3.57021e-08 2.98507e-08 2.48308e-08 2.05492e-08 1.69183e-08 1.38569e-08 1.12905e-08 9.15151e-09 7.37894e-09 5.91848e-09 4.72209e-09 3.74765e-09 2.95856e-09 2.32321e-09 1.8146e-09 1.40978e-09 1.08942e-09 8.37345e-10 6.40145e-10 4.86755e-10 3.68127e-10 2.76908e-10 2.07167e-10 1.54152e-10 1.14081e-10 8.39675e-11 6.14652e-11 4.47457e-11 3.23923e-11 2.33146e-11 1.66786e-11 1.18498e-11 8.34802e-12 5.81116e-12 3.96614e-12 2.60613e-12 1.57221e-12 7.38536e-13 0 
0 1.22426e-12 2.60613e-12 4.31976e-12 6.5736e-12 9.63087e-12 1.38341e-11 1.96354e-11 2.76346e-11 3.86266e-11 5.36616e-11 7.41204e-11 1.01808e-10 1.39068e-10 1.88929e-10 2.5527e-10 3.43035e-10 4.58482e-10 6.09471e-10 8.05815e-10 1.05968e-09 1.38602e-09 1.80315e-09 2.33325e-09 3.00306e-09 3.84454e-09 4.89564e-09 6.20104e-09 7.81294e-09 9.79189e-09 1.22075e-08 1.51392e-08 1.86768e-08 2.2921e-08 2.79836e-08 3.39878e-08 4.10676e-08 4.93677e-08 5.90425e-08 7.02548e-08 8.3174e-08 9.79743e-08 1.14832e-07 1.33922e-07 1.55416e-07 1.79478e-07 2.06257e-07 2.35891e-07 2.68493e-07 3.04155e-07 3.42938e-07 3.84873e-07 4.29953e-07 4.78137e-07 5.29339e-07 5.83436e-07 6.4026e-07 6.99606e-07 7.61227e-07 8.24842e-07 8.90135e-07 9.56765e-07 1.02437e-06 1.09256e-06 1.16094e-06 1.22913e-06 1.29674e-06 1.36337e-06 1.42866e-06 1.49227e-06 1.55389e-06 1.61324e-06 1.67006e-06 1.72416e-06 1.77536e-06 1.82355e-06 1.86863e-06 1.91056e-06 1.94935e-06 1.98501e-06 2.01761e-06 2.04724e-06 2.07402e-06 2.09808e-06 2.11958e-06 2.13867e-06 2.15553e-06 2.17033e-06 2.18325e-06 2.19446e-06 2.20413e-06 2.21243e-06 2.21951e-06 2.22552e-06 2.23058e-06 2.23482e-06 2.23836e-06 2.24129e-06 2.24371e-06 2.24569e-06 2.2473e-06 2.24861e-06 2.24966e-06 2.2505e-06 2.25117e-06 2.2517e-06 2.25211e-06 2.25244e-06 2.25269e-06 2.25289e-06 2.25304e-06 2.25316e-06 2.25325e-06 2.25331e-06 2.25336e-06 2.2534e-06 2.25343e-06 2.25345e-06 2.25346e-06 2.25347e-06 2.25348e-06 2.25349e-06 2.25349e-06 2.25349e-06 2.2535e-06 2.2535e-06 2.2535e-06 2.2535e-06 2.2535e-06 2.2535e-06 2.2535e-06 2.2535e-06 2.25349e-06 2.25349e-06 2.25349e-06 2.25348e-06 2.25347e-06 2.25346e-06 2.25345e-06 2.25343e-06 2.2534e-06 2.25336e-06 2.25331e-06 2.25325e-06 2.25316e-06 2.25304e-06 2.25289e-06 2.25269e-06 2.25244e-06 2.25211e-06 2.2517e-06 2.25117e-06 2.2505e-06 2.24966e-06 2.24861e-06 2.2473e-06 2.24569e-06 2.24371e-06 2.24129e-06 2.23836e-06 2.23482e-06 2.23058e-06 2.22552e-06 2.21951e-06 2.21243e-06 2.20413e-06 2.19446e-06 2.18325e-06 2.17033e-06 2.15553e-06 2.13867e-06 2.11958e-06 2.09808e-06 2.07402e-06 2.04724e-06 2.01761e-06 1.98501e-06 1.94935e-06 1.91056e-06 1.86863e-06 1.82355e-06 1.77536e-06 1.72416e-06 1.67006e-06 1.61324e-06 1.55389e-06 1.49227e-06 1.42866e-06 1.36337e-06 1.29674e-06 1.22913e-06 1.16094e-06 1.09256e-06 1.02437e-06 9.56765e-07 8.90135e-07 8.24842e-07 7.61227e-07 6.99606e-07 6.4026e-07 5.83436e-07 5.29339e-07 4.78137e-07 4.29953e-07 3.84873e-07 3.42938e-07 3.04155e-07 2.68493e-07 2.35891e-07 2.06257e-07 1.79478e-07 1.55416e-07 1.33922e-07 1.14832e-07 9.79743e-08 8.3174e-08 7.02548e-08 5.90425e-08 4.93677e-08 4.10676e-08 3.39878e-08 2.79836e-08 2.2921e-08 1.86768e-08 1.51392e-08 1.22075e-08 9.79189e-09 7.81294e-09 6.20104e-09 4.89564e-09 3.84454e-09 3.00306e-09 2.33325e-09 1.80315e-09 1.38602e-09 1.05968e-09 8.05815e-10 6.09471e-10 4.58482e-10 3.43035e-10 2.5527e-10 1.88929e-10 1.39068e-10 1.01808e-10 7.41204e-11 5.36616e-11 3.86266e-11 2.76346e-11 1.96354e-11 1.38341e-11 9.63087e-12 6.5736e-12 4.31976e-12 2.60613e-12 1.22426e-12 0 
0 1.86321e-12 3.96614e-12 6.5736e-12 1.00025e-11 1.46532e-11 2.10462e-11 2.98688e-11 4.20324e-11 5.8745e-11 8.16023e-11 1.12702e-10 1.54785e-10 2.11414e-10 2.87184e-10 3.8799e-10 5.21338e-10 6.96726e-10 9.2609e-10 1.22433e-09 1.60989e-09 2.10551e-09 2.73894e-09 3.54386e-09 4.56084e-09 5.83839e-09 7.43405e-09 9.4156e-09 1.18623e-08 1.48658e-08 1.85319e-08 2.2981e-08 2.83492e-08 3.47892e-08 4.24706e-08 5.158e-08 6.23209e-08 7.49124e-08 8.95887e-08 1.06596e-07 1.26192e-07 1.4864e-07 1.74208e-07 2.0316e-07 2.35757e-07 2.72246e-07 3.12855e-07 3.57791e-07 4.07227e-07 4.613e-07 5.20104e-07 5.83686e-07 6.52036e-07 7.25089e-07 8.02717e-07 8.84731e-07 9.7088e-07 1.06085e-06 1.15427e-06 1.25071e-06 1.34969e-06 1.4507e-06 1.55318e-06 1.65655e-06 1.76023e-06 1.8636e-06 1.96608e-06 2.06709e-06 2.16607e-06 2.26251e-06 2.35593e-06 2.4459e-06 2.53205e-06 2.61406e-06 2.69169e-06 2.76474e-06 2.83309e-06 2.89667e-06 2.95548e-06 3.00955e-06 3.05899e-06 3.10392e-06 3.14453e-06 3.18102e-06 3.21362e-06 3.24257e-06 3.26814e-06 3.29059e-06 3.31018e-06 3.32719e-06 3.34187e-06 3.35446e-06 3.3652e-06 3.37431e-06 3.38199e-06 3.38843e-06 3.3938e-06 3.39825e-06 3.40191e-06 3.40492e-06 3.40736e-06 3.40935e-06 3.41094e-06 3.41222e-06 3.41324e-06 3.41404e-06 3.41467e-06 3.41517e-06 3.41556e-06 3.41585e-06 3.41608e-06 3.41626e-06 3.41639e-06 3.41649e-06 3.41657e-06 3.41662e-06 3.41667e-06 3.4167e-06 3.41672e-06 3.41674e-06 3.41675e-06 3.41676e-06 3.41676e-06 3.41677e-06 3.41677e-06 3.41677e-06 3.41677e-06 3.41678e-06 3.41678e-06 3.41677e-06 3.41677e-06 3.41677e-06 3.41677e-06 3.41676e-06 3.41676e-06 3.41675e-06 3.41674e-06 3.41672e-06 3.4167e-06 3.41667e-06 3.41662e-06 3.41657e-06 3.41649e-06 3.41639e-06 3.41626e-06 3.41608e-06 3.41585e-06 3.41556e-06 3.41517e-06 3.41467e-06 3.41404e-06 3.41324e-06 3.41222e-06 3.41094e-06 3.40935e-06 3.40736e-06 3.40492e-06 3.40191e-06 3.39825e-06 3.3938e-06 3.38843e-06 3.38199e-06 3.37431e-06 3.3652e-06 3.35446e-06 3.34187e-06 3.32719e-06 3.31018e-06 3.29059e-06 3.26814e-06 3.24257e-06 3.21362e-06 3.18102e-06 3.14453e-06 3.10392e-06 3.05899e-06 3.00955e-06 2.95548e-06 2.89667e-06 2.83309e-06 2.76474e-06 2.69169e-06 2.61406e-06 2.53205e-06 2.4459e-06 2.35593e-06 2.26251e-06 2.16607e-06 2.06709e-06 1.96608e-06 1.8636e-06 1.76023e-06 1.65655e-06 1.55318e-06 1.4507e-06 1.34969e-06 1.25071e-06 1.15427e-06 1.06085e-06 9.7088e-07 8.84731e-07 8.02717e-07 7.25089e-07 6.52036e-07 5.83686e-07 5.20104e-07 4.613e-07 4.07227e-07 3.57791e-07 3.12855e-07 2.72246e-07 2.35757e-07 2.0316e-07 1.74208e-07 1.4864e-07 1.26192e-07 1.06596e-07 8.95887e-08 7.49124e-08 6.23209e-08 5.158e-08 4.24706e-08 3.47892e-08 2.83492e-08 2.2981e-08 1.85319e-08 1.48658e-08 1.18623e-08 9.4156e-09 7.43405e-09 5.83839e-09 4.56084e-09 3.54386e-09 2.73894e-09 2.10551e-09 1.60989e-09 1.22433e-09 9.2609e-10 6.96726e-10 5.21338e-10 3.8799e-10 2.87184e-10 2.11414e-10 1.54785e-10 1.12702e-10 8.16023e-11 5.8745e-11 4.20324e-11 2.98688e-11 2.10462e-11 1.46532e-11 1.00025e-11 6.5736e-12 3.96614e-12 1.86321e-12 0 
0 2.7301e-12 5.81116e-12 9.63087e-12 1.46532e-11 2.14638e-11 3.08246e-11 4.37411e-11 6.15465e-11 8.60077e-11 1.19459e-10 1.64966e-10 2.26539e-10 3.09383e-10 4.20218e-10 5.67657e-10 7.62673e-10 1.01914e-09 1.35451e-09 1.79053e-09 2.35417e-09 3.07862e-09 4.00443e-09 5.18078e-09 6.6669e-09 8.53363e-09 1.0865e-08 1.37599e-08 1.7334e-08 2.17213e-08 2.7076e-08 3.35737e-08 4.14133e-08 5.08175e-08 6.20337e-08 7.53342e-08 9.10157e-08 1.09398e-07 1.30823e-07 1.55649e-07 1.84252e-07 2.17017e-07 2.54332e-07 2.96587e-07 3.44157e-07 3.97405e-07 4.56664e-07 5.22233e-07 5.94366e-07 6.73263e-07 7.59061e-07 8.51826e-07 9.51545e-07 1.05812e-06 1.17137e-06 1.29102e-06 1.41669e-06 1.54794e-06 1.68422e-06 1.8249e-06 1.96929e-06 2.11663e-06 2.26612e-06 2.41692e-06 2.56815e-06 2.71894e-06 2.86843e-06 3.01577e-06 3.16016e-06 3.30085e-06 3.43712e-06 3.56837e-06 3.69405e-06 3.81369e-06 3.92694e-06 4.03352e-06 4.13324e-06 4.226e-06 4.3118e-06 4.3907e-06 4.46283e-06 4.5284e-06 4.58766e-06 4.64091e-06 4.68848e-06 4.73073e-06 4.76805e-06 4.80081e-06 4.82942e-06 4.85424e-06 4.87567e-06 4.89405e-06 4.90973e-06 4.92303e-06 4.93425e-06 4.94365e-06 4.95149e-06 4.95799e-06 4.96334e-06 4.96773e-06 4.9713e-06 4.9742e-06 4.97653e-06 4.9784e-06 4.97988e-06 4.98106e-06 4.98199e-06 4.98271e-06 4.98327e-06 4.98371e-06 4.98405e-06 4.9843e-06 4.9845e-06 4.98464e-06 4.98475e-06 4.98484e-06 4.9849e-06 4.98494e-06 4.98498e-06 4.985e-06 4.98502e-06 4.98503e-06 4.98504e-06 4.98505e-06 4.98505e-06 4.98506e-06 4.98506e-06 4.98506e-06 4.98506e-06 4.98506e-06 4.98506e-06 4.98505e-06 4.98505e-06 4.98504e-06 4.98503e-06 4.98502e-06 4.985e-06 4.98498e-06 4.98494e-06 4.9849e-06 4.98484e-06 4.98475e-06 4.98464e-06 4.9845e-06 4.9843e-06 4.98405e-06 4.98371e-06 4.98327e-06 4.98271e-06 4.98199e-06 4.98106e-06 4.97988e-06 4.9784e-06 4.97653e-06 4.9742e-06 4.9713e-06 4.96773e-06 4.96334e-06 4.95799e-06 4.95149e-06 4.94365e-06 4.93425e-06 4.92303e-06 4.90973e-06 4.89405e-06 4.87567e-06 4.85424e-06 4.82942e-06 4.80081e-06 4.76805e-06 4.73073e-06 4.68848e-06 4.64091e-06 4.58766e-06 4.5284e-06 4.46283e-06 4.3907e-06 4.3118e-06 4.226e-06 4.13324e-06 4.03352e-06 3.92694e-06 3.81369e-06 3.69405e-06 3.56837e-06 3.43712e-06 3.30085e-06 3.16016e-06 3.01577e-06 2.86843e-06 2.71894e-06 2.56815e-06 2.41692e-06 2.26612e-06 2.11663e-06 1.96929e-06 1.8249e-06 1.68422e-06 1.54794e-06 1.41669e-06 1.29102e-06 1.17137e-06 1.05812e-06 9.51545e-07 8.51826e-07 7.59061e-07 6.73263e-07 5.94366e-07 5.22233e-07 4.56664e-07 3.97405e-07 3.44157e-07 2.96587e-07 2.54332e-07 2.17017e-07 1.84252e-07 1.55649e-07 1.30823e-07 1.09398e-07 9.10157e-08 7.53342e-08 6.20337e-08 5.08175e-08 4.14133e-08 3.35737e-08 2.7076e-08 2.17213e-08 1.7334e-08 1.37599e-08 1.0865e-08 8.53363e-09 6.6669e-09 5.18078e-09 4.00443e-09 3.07862e-09 2.35417e-09 1.79053e-09 1.35451e-09 1.01914e-09 7.62673e-10 5.67657e-10 4.20218e-10 3.09383e-10 2.26539e-10 1.64966e-10 1.19459e-10 8.60077e-11 6.15465e-11 4.37411e-11 3.08246e-11 2.14638e-11 1.46532e-11 9.63087e-12 5.81116e-12 2.7301e-12 0 
0 3.92212e-12 8.34802e-12 1.38341e-11 2.10462e-11 3.08246e-11 4.42623e-11 6.28016e-11 8.83544e-11 1.23454e-10 1.71447e-10 2.36729e-10 3.25047e-10 4.4386e-10 6.02798e-10 8.14202e-10 1.09379e-09 1.46144e-09 1.94214e-09 2.56704e-09 3.37476e-09 4.41282e-09 5.73926e-09 7.4245e-09 9.55332e-09 1.22271e-08 1.5566e-08 1.97117e-08 2.48297e-08 3.11115e-08 3.87778e-08 4.80799e-08 5.9302e-08 7.27628e-08 8.88162e-08 1.07851e-07 1.30293e-07 1.56597e-07 1.87253e-07 2.22775e-07 2.63698e-07 3.10572e-07 3.63954e-07 4.24397e-07 4.92443e-07 5.68605e-07 6.53362e-07 7.47141e-07 8.50303e-07 9.63134e-07 1.08583e-06 1.21849e-06 1.36108e-06 1.51348e-06 1.67541e-06 1.84649e-06 2.02619e-06 2.21385e-06 2.40869e-06 2.60984e-06 2.81628e-06 3.02694e-06 3.24067e-06 3.45627e-06 3.67248e-06 3.88808e-06 4.10181e-06 4.31247e-06 4.51892e-06 4.72006e-06 4.9149e-06 5.10256e-06 5.28226e-06 5.45334e-06 5.61527e-06 5.76767e-06 5.91026e-06 6.04292e-06 6.16562e-06 6.27845e-06 6.38161e-06 6.47539e-06 6.56015e-06 6.63631e-06 6.70435e-06 6.7648e-06 6.81818e-06 6.86505e-06 6.90598e-06 6.9415e-06 6.97215e-06 6.99846e-06 7.0209e-06 7.03993e-06 7.05599e-06 7.06945e-06 7.08067e-06 7.08997e-06 7.09764e-06 7.10392e-06 7.10904e-06 7.11318e-06 7.11652e-06 7.1192e-06 7.12133e-06 7.12301e-06 7.12434e-06 7.12538e-06 7.12618e-06 7.12681e-06 7.12729e-06 7.12766e-06 7.12794e-06 7.12815e-06 7.12831e-06 7.12842e-06 7.12851e-06 7.12858e-06 7.12863e-06 7.12866e-06 7.12869e-06 7.1287e-06 7.12872e-06 7.12873e-06 7.12873e-06 7.12874e-06 7.12874e-06 7.12874e-06 7.12874e-06 7.12874e-06 7.12874e-06 7.12873e-06 7.12873e-06 7.12872e-06 7.1287e-06 7.12869e-06 7.12866e-06 7.12863e-06 7.12858e-06 7.12851e-06 7.12842e-06 7.12831e-06 7.12815e-06 7.12794e-06 7.12766e-06 7.12729e-06 7.12681e-06 7.12618e-06 7.12538e-06 7.12434e-06 7.12301e-06 7.12133e-06 7.1192e-06 7.11652e-06 7.11318e-06 7.10904e-06 7.10392e-06 7.09764e-06 7.08997e-06 7.08067e-06 7.06945e-06 7.05599e-06 7.03993e-06 7.0209e-06 6.99846e-06 6.97215e-06 6.9415e-06 6.90598e-06 6.86505e-06 6.81818e-06 6.7648e-06 6.70435e-06 6.63631e-06 6.56015e-06 6.47539e-06 6.38161e-06 6.27845e-06 6.16562e-06 6.04292e-06 5.91026e-06 5.76767e-06 5.61527e-06 5.45334e-06 5.28226e-06 5.10256e-06 4.9149e-06 4.72006e-06 4.51892e-06 4.31247e-06 4.10181e-06 3.88808e-06 3.67248e-06 3.45627e-06 3.24067e-06 3.02694e-06 2.81628e-06 2.60984e-06 2.40869e-06 2.21385e-06 2.02619e-06 1.84649e-06 1.67541e-06 1.51348e-06 1.36108e-06 1.21849e-06 1.08583e-06 9.63134e-07 8.50303e-07 7.47141e-07 6.53362e-07 5.68605e-07 4.92443e-07 4.24397e-07 3.63954e-07 3.10572e-07 2.63698e-07 2.22775e-07 1.87253e-07 1.56597e-07 1.30293e-07 1.07851e-07 8.88162e-08 7.27628e-08 5.9302e-08 4.80799e-08 3.87778e-08 3.11115e-08 2.48297e-08 1.97117e-08 1.5566e-08 1.22271e-08 9.55332e-09 7.4245e-09 5.73926e-09 4.41282e-09 3.37476e-09 2.56704e-09 1.94214e-09 1.46144e-09 1.09379e-09 8.14202e-10 6.02798e-10 4.4386e-10 3.25047e-10 2.36729e-10 1.71447e-10 1.23454e-10 8.83544e-11 6.28016e-11 4.42623e-11 3.08246e-11 2.10462e-11 1.38341e-11 8.34802e-12 3.92212e-12 0 
0 5.56763e-12 1.18498e-11 1.96354e-11 2.98688e-11 4.37411e-11 6.28016e-11 8.90942e-11 1.25328e-10 1.75093e-10 2.43127e-10 3.35659e-10 4.60825e-10 6.2919e-10 8.54383e-10 1.15388e-09 1.54992e-09 2.07065e-09 2.75141e-09 3.63629e-09 4.77992e-09 6.24953e-09 8.12721e-09 1.05125e-08 1.35254e-08 1.73092e-08 2.20339e-08 2.78996e-08 3.51402e-08 4.40267e-08 5.48707e-08 6.80275e-08 8.38988e-08 1.02935e-07 1.25635e-07 1.5255e-07 1.84279e-07 2.21467e-07 2.64805e-07 3.15017e-07 3.72862e-07 4.39114e-07 5.14561e-07 5.99983e-07 6.96144e-07 8.03771e-07 9.23537e-07 1.05605e-06 1.20181e-06 1.36122e-06 1.53457e-06 1.72199e-06 1.92344e-06 2.13873e-06 2.36749e-06 2.60916e-06 2.863e-06 3.12808e-06 3.40331e-06 3.68743e-06 3.97903e-06 4.2766e-06 4.57849e-06 4.88301e-06 5.18842e-06 5.49294e-06 5.79484e-06 6.0924e-06 6.38401e-06 6.66812e-06 6.94335e-06 7.20844e-06 7.46227e-06 7.70394e-06 7.9327e-06 8.148e-06 8.34945e-06 8.53686e-06 8.71021e-06 8.86963e-06 9.01539e-06 9.1479e-06 9.26766e-06 9.37529e-06 9.47145e-06 9.55687e-06 9.63232e-06 9.69857e-06 9.75642e-06 9.80663e-06 9.84997e-06 9.88716e-06 9.91888e-06 9.9458e-06 9.9685e-06 9.98754e-06 1.00034e-05 1.00166e-05 1.00274e-05 1.00363e-05 1.00435e-05 1.00494e-05 1.00541e-05 1.00579e-05 1.00609e-05 1.00633e-05 1.00652e-05 1.00667e-05 1.00678e-05 1.00687e-05 1.00694e-05 1.00699e-05 1.00703e-05 1.00706e-05 1.00708e-05 1.0071e-05 1.00711e-05 1.00712e-05 1.00713e-05 1.00713e-05 1.00713e-05 1.00714e-05 1.00714e-05 1.00714e-05 1.00714e-05 1.00714e-05 1.00714e-05 1.00714e-05 1.00714e-05 1.00714e-05 1.00714e-05 1.00714e-05 1.00714e-05 1.00714e-05 1.00714e-05 1.00713e-05 1.00713e-05 1.00713e-05 1.00712e-05 1.00711e-05 1.0071e-05 1.00708e-05 1.00706e-05 1.00703e-05 1.00699e-05 1.00694e-05 1.00687e-05 1.00678e-05 1.00667e-05 1.00652e-05 1.00633e-05 1.00609e-05 1.00579e-05 1.00541e-05 1.00494e-05 1.00435e-05 1.00363e-05 1.00274e-05 1.00166e-05 1.00034e-05 9.98754e-06 9.9685e-06 9.9458e-06 9.91888e-06 9.88716e-06 9.84997e-06 9.80663e-06 9.75642e-06 9.69857e-06 9.63232e-06 9.55687e-06 9.47145e-06 9.37529e-06 9.26766e-06 9.1479e-06 9.01539e-06 8.86963e-06 8.71021e-06 8.53686e-06 8.34945e-06 8.148e-06 7.9327e-06 7.70394e-06 7.46227e-06 7.20844e-06 6.94335e-06 6.66812e-06 6.38401e-06 6.0924e-06 5.79484e-06 5.49294e-06 5.18842e-06 4.88301e-06 4.57849e-06 4.2766e-06 3.97903e-06 3.68743e-06 3.40331e-06 3.12808e-06 2.863e-06 2.60916e-06 2.36749e-06 2.13873e-06 1.92344e-06 1.72199e-06 1.53457e-06 1.36122e-06 1.20181e-06 1.05605e-06 9.23537e-07 8.03771e-07 6.96144e-07 5.99983e-07 5.14561e-07 4.39114e-07 3.72862e-07 3.15017e-07 2.64805e-07 2.21467e-07 1.84279e-07 1.5255e-07 1.25635e-07 1.02935e-07 8.38988e-08 6.80275e-08 5.48707e-08 4.40267e-08 3.51402e-08 2.78996e-08 2.20339e-08 1.73092e-08 1.35254e-08 1.05125e-08 8.12721e-09 6.24953e-09 4.77992e-09 3.63629e-09 2.75141e-09 2.07065e-09 1.54992e-09 1.15388e-09 8.54383e-10 6.2919e-10 4.60825e-10 3.35659e-10 2.43127e-10 1.75093e-10 1.25328e-10 8.90942e-11 6.28016e-11 4.37411e-11 2.98688e-11 1.96354e-11 1.18498e-11 5.56763e-12 0 
0 7.83689e-12 1.66786e-11 2.76346e-11 4.20324e-11 6.15465e-11 8.83544e-11 1.25328e-10 1.76274e-10 2.46234e-10 3.41866e-10 4.71914e-10 6.47804e-10 8.84367e-10 1.20074e-09 1.62145e-09 2.17771e-09 2.90901e-09 3.86493e-09 5.10736e-09 6.7129e-09 8.77585e-09 1.14114e-08 1.4759e-08 1.89871e-08 2.42963e-08 3.09252e-08 3.91542e-08 4.93111e-08 6.17757e-08 7.69847e-08 9.54358e-08 1.17692e-07 1.44384e-07 1.76211e-07 2.13945e-07 2.58425e-07 3.10555e-07 3.713e-07 4.41677e-07 5.22746e-07 6.15594e-07 7.2132e-07 8.4102e-07 9.7576e-07 1.12656e-06 1.29436e-06 1.48e-06 1.68421e-06 1.90753e-06 2.15037e-06 2.41289e-06 2.69507e-06 2.99663e-06 3.31705e-06 3.65554e-06 4.01107e-06 4.38234e-06 4.76781e-06 5.16573e-06 5.57413e-06 5.99087e-06 6.41367e-06 6.84015e-06 7.26787e-06 7.69435e-06 8.11715e-06 8.53389e-06 8.94229e-06 9.34021e-06 9.72569e-06 1.0097e-05 1.04525e-05 1.0791e-05 1.11114e-05 1.14129e-05 1.16951e-05 1.19577e-05 1.22005e-05 1.24238e-05 1.2628e-05 1.28137e-05 1.29815e-05 1.31323e-05 1.3267e-05 1.33867e-05 1.34924e-05 1.35853e-05 1.36663e-05 1.37367e-05 1.37975e-05 1.38496e-05 1.38941e-05 1.39318e-05 1.39636e-05 1.39903e-05 1.40126e-05 1.4031e-05 1.40462e-05 1.40587e-05 1.40689e-05 1.40771e-05 1.40837e-05 1.4089e-05 1.40933e-05 1.40966e-05 1.40992e-05 1.41013e-05 1.41029e-05 1.41042e-05 1.41051e-05 1.41058e-05 1.41064e-05 1.41068e-05 1.41071e-05 1.41074e-05 1.41076e-05 1.41077e-05 1.41078e-05 1.41078e-05 1.41079e-05 1.41079e-05 1.4108e-05 1.4108e-05 1.4108e-05 1.4108e-05 1.4108e-05 1.4108e-05 1.4108e-05 1.4108e-05 1.4108e-05 1.4108e-05 1.4108e-05 1.4108e-05 1.41079e-05 1.41079e-05 1.41078e-05 1.41078e-05 1.41077e-05 1.41076e-05 1.41074e-05 1.41071e-05 1.41068e-05 1.41064e-05 1.41058e-05 1.41051e-05 1.41042e-05 1.41029e-05 1.41013e-05 1.40992e-05 1.40966e-05 1.40933e-05 1.4089e-05 1.40837e-05 1.40771e-05 1.40689e-05 1.40587e-05 1.40462e-05 1.4031e-05 1.40126e-05 1.39903e-05 1.39636e-05 1.39318e-05 1.38941e-05 1.38496e-05 1.37975e-05 1.37367e-05 1.36663e-05 1.35853e-05 1.34924e-05 1.33867e-05 1.3267e-05 1.31323e-05 1.29815e-05 1.28137e-05 1.2628e-05 1.24238e-05 1.22005e-05 1.19577e-05 1.16951e-05 1.14129e-05 1.11114e-05 1.0791e-05 1.04525e-05 1.0097e-05 9.72569e-06 9.34021e-06 8.94229e-06 8.53389e-06 8.11715e-06 7.69435e-06 7.26787e-06 6.84015e-06 6.41367e-06 5.99087e-06 5.57413e-06 5.16573e-06 4.76781e-06 4.38234e-06 4.01107e-06 3.65554e-06 3.31705e-06 2.99663e-06 2.69507e-06 2.41289e-06 2.15037e-06 1.90753e-06 1.68421e-06 1.48e-06 1.29436e-06 1.12656e-06 9.7576e-07 8.4102e-07 7.2132e-07 6.15594e-07 5.22746e-07 4.41677e-07 3.713e-07 3.10555e-07 2.58425e-07 2.13945e-07 1.76211e-07 1.44384e-07 1.17692e-07 9.54358e-08 7.69847e-08 6.17757e-08 4.93111e-08 3.91542e-08 3.09252e-08 2.42963e-08 1.89871e-08 1.4759e-08 1.14114e-08 8.77585e-09 6.7129e-09 5.10736e-09 3.86493e-09 2.90901e-09 2.17771e-09 1.62145e-09 1.20074e-09 8.84367e-10 6.47804e-10 4.71914e-10 3.41866e-10 2.46234e-10 1.76274e-10 1.25328e-10 8.83544e-11 6.15465e-11 4.20324e-11 2.76346e-11 1.66786e-11 7.83689e-12 0 
0 1.09556e-11 2.33146e-11 3.86266e-11 5.8745e-11 8.60077e-11 1.23454e-10 1.75093e-10 2.46234e-10 3.43914e-10 4.77417e-10 6.58942e-10 9.04422e-10 1.23454e-09 1.67597e-09 2.2629e-09 3.03885e-09 4.05885e-09 5.39201e-09 7.12451e-09 9.36313e-09 1.22392e-08 1.59131e-08 2.05793e-08 2.64719e-08 3.38707e-08 4.31076e-08 5.45732e-08 6.87236e-08 8.60875e-08 1.07273e-07 1.32972e-07 1.63968e-07 2.01139e-07 2.45459e-07 2.97999e-07 3.59927e-07 4.32502e-07 5.17065e-07 6.15031e-07 7.27873e-07 8.57102e-07 1.00425e-06 1.17083e-06 1.35834e-06 1.56818e-06 1.80167e-06 2.05998e-06 2.3441e-06 2.65482e-06 2.99267e-06 3.3579e-06 3.75046e-06 4.16997e-06 4.6157e-06 5.08656e-06 5.58111e-06 6.09754e-06 6.63373e-06 7.18722e-06 7.75528e-06 8.33494e-06 8.92303e-06 9.51623e-06 1.01111e-05 1.07044e-05 1.12924e-05 1.18721e-05 1.24402e-05 1.29936e-05 1.35298e-05 1.40463e-05 1.45408e-05 1.50117e-05 1.54574e-05 1.58769e-05 1.62695e-05 1.66347e-05 1.69726e-05 1.72833e-05 1.75674e-05 1.78257e-05 1.80592e-05 1.8269e-05 1.84565e-05 1.86231e-05 1.87703e-05 1.88995e-05 1.90123e-05 1.91103e-05 1.91949e-05 1.92674e-05 1.93294e-05 1.93819e-05 1.94262e-05 1.94634e-05 1.94944e-05 1.95201e-05 1.95413e-05 1.95587e-05 1.95728e-05 1.95843e-05 1.95935e-05 1.96009e-05 1.96068e-05 1.96115e-05 1.96151e-05 1.9618e-05 1.96203e-05 1.9622e-05 1.96233e-05 1.96243e-05 1.96251e-05 1.96257e-05 1.96261e-05 1.96265e-05 1.96267e-05 1.96269e-05 1.9627e-05 1.96271e-05 1.96272e-05 1.96273e-05 1.96273e-05 1.96273e-05 1.96273e-05 1.96273e-05 1.96274e-05 1.96274e-05 1.96274e-05 1.96274e-05 1.96273e-05 1.96273e-05 1.96273e-05 1.96273e-05 1.96273e-05 1.96272e-05 1.96271e-05 1.9627e-05 1.96269e-05 1.96267e-05 1.96265e-05 1.96261e-05 1.96257e-05 1.96251e-05 1.96243e-05 1.96233e-05 1.9622e-05 1.96203e-05 1.9618e-05 1.96151e-05 1.96115e-05 1.96068e-05 1.96009e-05 1.95935e-05 1.95843e-05 1.95728e-05 1.95587e-05 1.95413e-05 1.95201e-05 1.94944e-05 1.94634e-05 1.94262e-05 1.93819e-05 1.93294e-05 1.92674e-05 1.91949e-05 1.91103e-05 1.90123e-05 1.88995e-05 1.87703e-05 1.86231e-05 1.84565e-05 1.8269e-05 1.80592e-05 1.78257e-05 1.75674e-05 1.72833e-05 1.69726e-05 1.66347e-05 1.62695e-05 1.58769e-05 1.54574e-05 1.50117e-05 1.45408e-05 1.40463e-05 1.35298e-05 1.29936e-05 1.24402e-05 1.18721e-05 1.12924e-05 1.07044e-05 1.01111e-05 9.51623e-06 8.92303e-06 8.33494e-06 7.75528e-06 7.18722e-06 6.63373e-06 6.09754e-06 5.58111e-06 5.08656e-06 4.6157e-06 4.16997e-06 3.75046e-06 3.3579e-06 2.99267e-06 2.65482e-06 2.3441e-06 2.05998e-06 1.80167e-06 1.56818e-06 1.35834e-06 1.17083e-06 1.00425e-06 8.57102e-07 7.27873e-07 6.15031e-07 5.17065e-07 4.32502e-07 3.59927e-07 2.97999e-07 2.45459e-07 2.01139e-07 1.63968e-07 1.32972e-07 1.07273e-07 8.60875e-08 6.87236e-08 5.45732e-08 4.31076e-08 3.38707e-08 2.64719e-08 2.05793e-08 1.59131e-08 1.22392e-08 9.36313e-09 7.12451e-09 5.39201e-09 4.05885e-09 3.03885e-09 2.2629e-09 1.67597e-09 1.23454e-09 9.04422e-10 6.58942e-10 4.77417e-10 3.43914e-10 2.46234e-10 1.75093e-10 1.23454e-10 8.60077e-11 5.8745e-11 3.86266e-11 2.33146e-11 1.09556e-11 0 