<?xml version="1.0"?>
<VTKFile type="ImageData" version="0.1" byte_order="LittleEndian">
  <ImageData WholeExtent="0 255 0 255 0 0" Origin="0 0 0" Spacing="1 1 1">
  <Piece Extent="0 255 0 255 0 0">
    <PointData>
      <DataArray type="Float32" Name="scalar_data" format="ascii" >0 0 0 0 0 0 0 0 0 0 0 0 0 0 0 0 0 0 0 0 0 0 0 0 0 0 0 0 0 0 0 0 0 0 0 0 0 0 0 0 0 0 0 0 0 0 0 0 0 0 0 0 0 0 0 0 0 0 0 0 0 0 0 0 0 0 0 0 0 0 0 0 0 0 0 0 0 0 0 0 0 0 0 0 0 0 0 0 0 0 0 0 0 0 0 0 0 0 0 0 0 0 0 0 0 0 0 0 0 0 0 0 0 0 0 0 0 0 0 0 0 0 0 0 0 0 0 0 0 0 0 0 0 0 0 0 0 0 0 0 0 0 0 0 0 0 0 0 0 0 0 0 0 0 0 0 0 0 0 0 0 0 0 0 0 0 0 0 0 0 0 0 0 0 0 0 0 0 0 0 0 0 0 0 0 0 0 0 0 0 0 0 0 0 0 0 0 0 0 0 0 0 0 0 0 0 0 0 0 0 0 0 0 0 0 0 0 0 0 0 0 0 0 0 0 0 0 0 0 0 0 0 0 0 0 0 0 0 0 0 0 0 0 0 0 0 0 0 0 0 0 0 0 0 0 0 
0 0 0 0 0 0 0 0 0 0 0 0 0 0 0 0 0 0 0 0 0 0 0 0 0 0 0 0 0 0 0 0 0 0 0 0 0 0 0 0 0 0 0 0 0 0 0 0 0 0 0 0 0 0 0 0 0 0 0 0 0 0 0 0 0 0 0 0 0 0 0 0 0 0 0 0 0 0 0 0 0 0 0 0 0 0 0 0 0 0 0 0 0 0 0 0 0 0 0 0 0 0 0 0 0 0 0 0 0 0 0 0 0 0 0 0 0 0 0 0 0 0 0 0 0 0 0 0 0 0 0 0 0 0 0 0 0 0 0 0 0 0 0 0 0 0 0 0 0 0 0 0 0 0 0 0 0 0 0 0 0 0 0 0 0 0 0 0 0 0 0 0 0 0 0 0 0 0 0 0 0 0 0 0 0 0 0 0 0 0 0 0 0 0 0 0 0 0 0 0 0 0 0 0 0 0 0 0 0 0 0 0 0 0 0 0 0 0 0 0 0 0 0 0 0 0 0 0 0 0 0 0 0 0 0 0 0 0 0 0 0 0 0 0 0 0 0 0 0 0 0 0 0 0 0 0 
0 0 0 0 0 0 0 0 0 0 0 0 0 0 0 0 0 0 0 0 0 0 0 0 0 0 0 0 0 0 0 0 0 0 0 0 0 0 0 0 0 0 0 0 0 0 0 0 0 0 0 0 0 0 0 0 0 0 0 0 0 0 0 0 0 0 0 0 0 0 0 0 0 0 0 0 0 0 0 0 0 0 0 0 0 0 0 0 0 0 0 0 0 0 0 0 0 0 0 0 0 0 0 0 0 0 0 0 0 0 0 0 0 0 0 0 0 0 0 0 0 0 0 0 0 0 0 0 0 0 0 0 0 0 0 0 0 0 0 0 0 0 0 0 0 0 0 0 0 0 0 0 0 0 0 0 0 0 0 0 0 0 0 0 0 0 0 0 0 0 0 0 0 0 0 0 0 0 0 0 0 0 0 0 0 0 0 0 0 0 0 0 0 0 0 0 0 0 0 0 0 0 0 0 0 0 0 0 0 0 0 0 0 0 0 0 0 0 0 0 0 0 0 0 0 0 0 0 0 0 0 0 0 0 0 0 0 0 0 0 0 0 0 0 0 0 0 0 0 0 0 0 0 0 0 0 
0 0 0 0 0 0 0 0 0 0 0 0 0 0 0 0 0 0 0 0 0 0 0 0 0 0 0 0 0 0 0 0 0 0 0 0 0 0 0 0 0 0 0 0 0 0 0 0 0 0 0 0 0 0 0 0 0 0 0 0 0 0 0 0 0 0 0 0 0 0 0 0 0 0 0 0 0 0 0 0 0 0 0 0 0 0 0 0 0 0 0 0 0 0 0 0 0 0 0 0 0 0 0 0 0 0 0 0 0 0 0 0 0 0 0 0 0 0 0 0 0 0 0 0 0 0 0 0 0 0 0 0 0 0 0 0 0 0 0 0 0 0 0 0 0 0 0 0 0 0 0 0 0 0 0 0 0 0 0 0 0 0 0 0 0 0 0 0 0 0 0 0 0 0 0 0 0 0 0 0 0 0 0 0 0 0 0 0 0 0 0 0 0 0 0 0 0 0 0 0 0 0 0 0 0 0 0 0 0 0 0 0 0 0 0 0 0 0 0 0 0 0 0 0 0 0 0 0 0 0 0 0 0 0 0 0 0 0 0 0 0 0 0 0 0 0 0 0 0 0 0 0 0 0 0 0 
0 0 0 0 0 0 0 0 0 0 0 0 0 0 0 0 0 0 0 0 0 0 0 0 0 0 0 0 0 0 0 0 0 0 0 0 0 0 0 0 0 0 0 0 0 0 0 0 0 0 0 0 0 0 0 0 0 0 0 0 0 0 0 0 0 0 0 0 0 0 0 0 0 0 0 0 0 0 0 0 0 0 0 0 0 0 0 0 0 0 0 0 0 0 0 0 0 0 0 0 0 0 0 0 0 0 0 0 0 0 0 0 0 0 0 0 0 0 0 0 0 0 0 0 0 0 0 0 0 0 0 0 0 0 0 0 0 0 0 0 0 0 0 0 0 0 0 0 0 0 0 0 0 0 0 0 0 0 0 0 0 0 0 0 0 0 0 0 0 0 0 0 0 0 0 0 0 0 0 0 0 0 0 0 0 0 0 0 0 0 0 0 0 0 0 0 0 0 0 0 0 0 0 0 0 0 0 0 0 0 0 0 0 0 0 0 0 0 0 0 0 0 0 0 0 0 0 0 0 0 0 0 0 0 0 0 0 0 0 0 0 0 0 0 0 0 0 0 0 0 0 0 0 0 0 0 
0 0 0 0 0 0 0 0 0 0 0 0 0 0 0 0 0 0 0 0 0 0 0 0 0 0 0 0 0 0 0 0 0 0 0 0 0 0 0 0 0 0 0 0 0 0 0 0 0 0 0 0 0 0 0 0 0 0 0 0 0 0 0 0 0 0 0 0 0 0 0 0 0 0 0 0 0 0 0 0 0 0 0 0 0 0 0 0 0 0 0 0 0 0 0 0 0 0 0 0 0 0 0 0 0 0 0 0 0 0 0 0 0 0 0 0 0 0 0 0 0 0 0 0 0 0 0 0 0 0 0 0 0 0 0 0 0 0 0 0 0 0 0 0 0 0 0 0 0 0 0 0 0 0 0 0 0 0 0 0 0 0 0 0 0 0 0 0 0 0 0 0 0 0 0 0 0 0 0 0 0 0 0 0 0 0 0 0 0 0 0 0 0 0 0 0 0 0 0 0 0 0 0 0 0 0 0 0 0 0 0 0 0 0 0 0 0 0 0 0 0 0 0 0 0 0 0 0 0 0 0 0 0 0 0 0 0 0 0 0 0 0 0 0 0 0 0 0 0 0 0 0 0 0 0 0 
0 0 0 0 0 0 0 0 0 0 0 0 0 0 0 0 0 0 0 0 0 0 0 0 0 0 0 0 0 0 0 0 0 0 0 0 0 0 0 0 0 0 0 0 0 0 0 0 0 0 0 0 0 0 0 0 0 0 0 0 0 0 0 0 0 0 0 0 0 0 0 0 0 0 0 0 0 0 0 0 0 0 0 0 0 0 0 0 0 0 0 0 0 0 0 0 0 0 0 0 0 0 0 0 0 0 0 0 0 0 0 0 0 0 0 0 0 0 0 0 0 0 0 0 0 0 0 0 0 0 0 0 0 0 0 0 0 0 0 0 0 0 0 0 0 0 0 0 0 0 0 0 0 0 0 0 0 0 0 0 0 0 0 0 0 0 0 0 0 0 0 0 0 0 0 0 0 0 0 0 0 0 0 0 0 0 0 0 0 0 0 0 0 0 0 0 0 0 0 0 0 0 0 0 0 0 0 0 0 0 0 0 0 0 0 0 0 0 0 0 0 0 0 0 0 0 0 0 0 0 0 0 0 0 0 0 0 0 0 0 0 0 0 0 0 0 0 0 0 0 0 0 0 0 0 0 
0 0 0 0 0 0 0 0 0 0 0 0 0 0 0 0 0 0 0 0 0 0 0 0 0 0 0 0 0 0 0 0 0 0 0 0 0 0 0 0 0 0 0 0 0 0 0 0 0 0 0 0 0 0 0 0 0 0 0 0 0 0 0 0 0 0 0 0 0 0 0 0 0 0 0 0 0 0 0 0 0 0 0 0 0 0 0 0 0 0 0 0 0 0 0 0 0 0 0 0 0 0 0 0 0 0 0 0 0 0 0 0 0 0 0 0 0 0 0 0 0 0 0 0 0 0 0 0 0 0 0 0 0 0 0 0 0 0 0 0 0 0 0 0 0 0 0 0 0 0 0 0 0 0 0 0 0 0 0 0 0 0 0 0 0 0 0 0 0 0 0 0 0 0 0 0 0 0 0 0 0 0 0 0 0 0 0 0 0 0 0 0 0 0 0 0 0 0 0 0 0 0 0 0 0 0 0 0 0 0 0 0 0 0 0 0 0 0 0 0 0 0 0 0 0 0 0 0 0 0 0 0 0 0 0 0 0 0 0 0 0 0 0 0 0 0 0 0 0 0 0 0 0 0 0 0 
0 0 0 0 0 0 0 0 0 0 0 0 0 0 0 0 0 0 0 0 0 0 0 0 0 0 0 0 0 0 0 0 0 0 0 0 0 0 0 0 0 0 0 0 0 0 0 0 0 0 0 0 0 0 0 0 0 0 0 0 0 0 0 0 0 0 0 0 0 0 0 0 0 0 0 0 0 0 0 0 0 0 0 0 0 0 0 0 0 0 0 0 0 0 0 0 0 0 0 0 0 0 0 0 0 0 0 0 0 0 0 0 0 0 0 0 0 0 0 0 0 0 0 0 0 0 0 0 0 0 0 0 0 0 0 0 0 0 0 0 0 0 0 0 0 0 0 0 0 0 0 0 0 0 0 0 0 0 0 0 0 0 0 0 0 0 0 0 0 0 0 0 0 0 0 0 0 0 0 0 0 0 0 0 0 0 0 0 0 0 0 0 0 0 0 0 0 0 0 0 0 0 0 0 0 0 0 0 0 0 0 0 0 0 0 0 0 0 0 0 0 0 0 0 0 0 0 0 0 0 0 0 0 0 0 0 0 0 0 0 0 0 0 0 0 0 0 0 0 0 0 0 0 0 0 0 
0 0 0 0 0 0 0 0 0 0 0 0 0 0 0 0 0 0 0 0 0 0 0 0 0 0 0 0 0 0 0 0 0 0 0 0 0 0 0 0 0 0 0 0 0 0 0 0 0 0 0 0 0 0 0 0 0 0 0 0 0 0 0 0 0 0 0 0 0 0 0 0 0 0 0 0 0 0 0 0 0 0 0 0 0 0 0 0 0 0 0 0 0 0 0 0 0 0 0 0 0 0 0 0 0 0 0 0 0 0 0 0 0 0 0 0 0 0 0 0 0 0 0 0 0 0 0 0 0 0 0 0 0 0 0 0 0 0 0 0 0 0 0 0 0 0 0 0 0 0 0 0 0 0 0 0 0 0 0 0 0 0 0 0 0 0 0 0 0 0 0 0 0 0 0 0 0 0 0 0 0 0 0 0 0 0 0 0 0 0 0 0 0 0 0 0 0 0 0 0 0 0 0 0 0 0 0 0 0 0 0 0 0 0 0 0 0 0 0 0 0 0 0 0 0 0 0 0 0 0 0 0 0 0 0 0 0 0 0 0 0 0 0 0 0 0 0 0 0 0 0 0 0 0 0 0 
0 0 0 0 0 0 0 0 0 0 0 0 0 0 0 0 0 0 0 0 0 0 0 0 0 0 0 0 0 0 0 0 0 0 0 0 0 0 0 0 0 0 0 0 0 0 0 0 0 0 0 0 0 0 0 0 0 0 0 0 0 0 0 0 0 0 0 0 0 0 0 0 0 0 0 0 0 0 0 0 0 0 0 0 0 0 0 0 0 0 0 0 0 0 0 0 0 0 0 0 0 0 0 0 0 0 0 0 0 0 0 0 0 0 0 0 0 0 0 0 0 0 0 0 0 0 0 0 0 0 0 0 0 0 0 0 0 0 0 0 0 0 0 0 0 0 0 0 0 0 0 0 0 0 0 0 0 0 0 0 0 0 0 0 0 0 0 0 0 0 0 0 0 0 0 0 0 0 0 0 0 0 0 0 0 0 0 0 0 0 0 0 0 0 0 0 0 0 0 0 0 0 0 0 0 0 0 0 0 0 0 0 0 0 0 0 0 0 0 0 0 0 0 0 0 0 0 0 0 0 0 0 0 0 0 0 0 0 0 0 0 0 0 0 0 0 0 0 0 0 0 0 0 0 0 0 
0 0 0 0 0 0 0 0 0 0 0 0 0 0 0 0 0 0 0 0 0 0 0 0 0 0 0 0 0 0 0 0 0 0 0 0 0 0 0 0 0 0 0 0 0 0 0 0 0 0 0 0 0 0 0 0 0 0 0 0 0 0 0 0 0 0 0 0 0 0 0 0 0 0 0 0 0 0 0 0 0 0 0 0 0 0 0 0 0 0 0 0 0 0 0 0 0 0 0 0 0 0 0 0 0 0 0 0 0 0 0 0 0 0 0 0 0 0 0 0 0 0 0 0 0 0 0 0 0 0 0 0 0 0 0 0 0 0 0 0 0 0 0 0 0 0 0 0 0 0 0 0 0 0 0 0 0 0 0 0 0 0 0 0 0 0 0 0 0 0 0 0 0 0 0 0 0 0 0 0 0 0 0 0 0 0 0 0 0 0 0 0 0 0 0 0 0 0 0 0 0 0 0 0 0 0 0 0 0 0 0 0 0 0 0 0 0 0 0 0 0 0 0 0 0 0 0 0 0 0 0 0 0 0 0 0 0 0 0 0 0 0 0 0 0 0 0 0 0 0 0 0 0 0 0 0 
0 0 0 0 0 0 0 0 0 0 0 0 0 0 0 0 0 0 0 0 0 0 0 0 0 0 0 0 0 0 0 0 0 0 0 0 0 0 0 0 0 0 0 0 0 0 0 0 0 0 0 0 0 0 0 0 0 0 0 0 0 0 0 0 0 0 0 0 0 0 0 0 0 0 0 0 0 0 0 0 0 0 0 0 0 0 0 0 0 0 0 0 0 0 0 0 0 0 0 0 0 0 0 0 0 0 0 0 0 0 0 0 0 0 0 0 0 0 0 0 0 0 0 0 0 0 0 0 0 0 0 0 0 0 0 0 0 0 0 0 0 0 0 0 0 0 0 0 0 0 0 0 0 0 0 0 0 0 0 0 0 0 0 0 0 0 0 0 0 0 0 0 0 0 0 0 0 0 0 0 0 0 0 0 0 0 0 0 0 0 0 0 0 0 0 0 0 0 0 0 0 0 0 0 0 0 0 0 0 0 0 0 0 0 0 0 0 0 0 0 0 0 0 0 0 0 0 0 0 0 0 0 0 0 0 0 0 0 0 0 0 0 0 0 0 0 0 0 0 0 0 0 0 0 0 0 
0 0 0 0 0 0 0 0 0 0 0 0 0 0 0 0 0 0 0 0 0 0 0 0 0 0 0 0 0 0 0 0 0 0 0 0 0 0 0 0 0 0 0 0 0 0 0 0 0 0 0 0 0 0 0 0 0 0 0 0 0 0 0 0 0 0 0 0 0 0 0 0 0 0 0 0 0 0 0 0 0 0 0 0 0 0 0 0 0 0 0 0 0 0 0 0 0 0 0 0 0 0 0 0 0 0 0 0 0 0 0 0 0 0 0 0 0 0 0 0 0 0 0 0 0 0 0 0 0 0 0 0 0 0 0 0 0 0 0 0 0 0 0 0 0 0 0 0 0 0 0 0 0 0 0 0 0 0 0 0 0 0 0 0 0 0 0 0 0 0 0 0 0 0 0 0 0 0 0 0 0 0 0 0 0 0 0 0 0 0 0 0 0 0 0 0 0 0 0 0 0 0 0 0 0 0 0 0 0 0 0 0 0 0 0 0 0 0 0 0 0 0 0 0 0 0 0 0 0 0 0 0 0 0 0 0 0 0 0 0 0 0 0 0 0 0 0 0 0 0 0 0 0 0 0 0 
0 0 0 0 0 0 0 0 0 0 0 0 0 0 0 0 0 0 0 0 0 0 0 0 0 0 0 0 0 0 0 0 0 0 0 0 0 0 0 0 0 0 0 0 0 0 0 0 0 0 0 0 0 0 0 0 0 0 0 0 0 0 0 0 0 0 0 0 0 0 0 0 0 0 0 0 0 0 0 0 0 0 0 0 0 0 0 0 0 0 0 0 0 0 0 0 0 0 0 0 0 0 0 0 0 0 0 0 0 0 0 0 0 0 0 0 0 0 0 0 0 0 0 0 0 0 0 0 0 0 0 0 0 0 0 0 0 0 0 0 0 0 0 0 0 0 0 0 0 0 0 0 0 0 0 0 0 0 0 0 0 0 0 0 0 0 0 0 0 0 0 0 0 0 0 0 0 0 0 0 0 0 0 0 0 0 0 0 0 0 0 0 0 0 0 0 0 0 0 0 0 0 0 0 0 0 0 0 0 0 0 0 0 0 0 0 0 0 0 0 0 0 0 0 0 0 0 0 0 0 0 0 0 0 0 0 0 0 0 0 0 0 0 0 0 0 0 0 0 0 0 0 0 0 0 0 
0 0 0 0 0 0 0 0 0 0 0 0 0 0 0 0 0 0 0 0 0 0 0 0 0 0 0 0 0 0 0 0 0 0 0 0 0 0 0 0 0 0 0 0 0 0 0 0 0 0 0 0 0 0 0 0 0 0 0 0 0 0 0 0 0 0 0 0 0 0 0 0 0 0 0 0 0 0 0 0 0 0 0 0 0 0 0 0 0 0 0 0 0 0 0 0 0 0 0 0 0 0 0 0 0 0 0 0 0 0 0 0 0 0 0 0 0 0 0 0 0 0 0 0 0 0 0 0 0 0 0 0 0 0 0 0 0 0 0 0 0 0 0 0 0 0 0 0 0 0 0 0 0 0 0 0 0 0 0 0 0 0 0 0 0 0 0 0 0 0 0 0 0 0 0 0 0 0 0 0 0 0 0 0 0 0 0 0 0 0 0 0 0 0 0 0 0 0 0 0 0 0 0 0 0 0 0 0 0 0 0 0 0 0 0 0 0 0 0 0 0 0 0 0 0 0 0 0 0 0 0 0 0 0 0 0 0 0 0 0 0 0 0 0 0 0 0 0 0 0 0 0 0 0 0 0 
0 0 0 0 0 0 0 0 0 0 0 0 0 0 0 0 0 0 0 0 0 0 0 0 0 0 0 0 0 0 0 0 0 0 0 0 0 0 0 0 0 0 0 0 0 0 0 0 0 0 0 0 0 0 0 0 0 0 0 0 0 0 0 0 0 0 0 0 0 0 0 0 0 0 0 0 0 0 0 0 0 0 0 0 0 0 0 0 0 0 0 0 0 0 0 0 0 0 0 0 0 0 0 0 0 0 0 0 0 0 0 0 0 0 0 0 0 0 0 0 0 0 0 0 0 0 0 0 0 0 0 0 0 0 0 0 0 0 0 0 0 0 0 0 0 0 0 0 0 0 0 0 0 0 0 0 0 0 0 0 0 0 0 0 0 0 0 0 0 0 0 0 0 0 0 0 0 0 0 0 0 0 0 0 0 0 0 0 0 0 0 0 0 0 0 0 0 0 0 0 0 0 0 0 0 0 0 0 0 0 0 0 0 0 0 0 0 0 0 0 0 0 0 0 0 0 0 0 0 0 0 0 0 0 0 0 0 0 0 0 0 0 0 0 0 0 0 0 0 0 0 0 0 0 0 0 
0 0 0 0 0 0 0 0 0 0 0 0 0 0 0 0 0 0 0 0 0 0 0 0 0 0 0 0 0 0 0 0 0 0 0 0 0 0 0 0 0 0 0 0 0 0 0 0 0 0 0 0 0 0 0 0 0 0 0 0 0 0 0 0 0 0 0 0 0 0 0 0 0 0 0 0 0 0 0 0 0 0 0 0 0 0 0 0 0 0 0 0 0 0 0 0 0 0 0 0 0 0 0 0 0 0 0 0 0 0 0 0 0 0 0 0 0 0 0 0 0 0 0 0 0 0 0 0 0 0 0 0 0 0 0 0 0 0 0 0 0 0 0 0 0 0 0 0 0 0 0 0 0 0 0 0 0 0 0 0 0 0 0 0 0 0 0 0 0 0 0 0 0 0 0 0 0 0 0 0 0 0 0 0 0 0 0 0 0 0 0 0 0 0 0 0 0 0 0 0 0 0 0 0 0 0 0 0 0 0 0 0 0 0 0 0 0 0 0 0 0 0 0 0 0 0 0 0 0 0 0 0 0 0 0 0 0 0 0 0 0 0 0 0 0 0 0 0 0 0 0 0 0 0 0 0 
0 0 0 0 0 0 0 0 0 0 0 0 0 0 0 0 0 0 0 0 0 0 0 0 0 0 0 0 0 0 0 0 0 0 0 0 0 0 0 0 0 0 0 0 0 0 0 0 0 0 0 0 0 0 0 0 0 0 0 0 0 0 0 0 0 0 0 0 0 0 0 0 0 0 0 0 0 0 0 0 0 0 0 0 0 0 0 0 0 0 0 0 0 0 0 0 0 0 0 0 0 0 0 0 0 0 0 0 0 0 0 0 0 0 0 0 0 0 0 0 0 0 0 0 0 0 0 0 0 0 0 0 0 0 0 0 0 0 0 0 0 0 0 0 0 0 0 0 0 0 0 0 0 0 0 0 0 0 0 0 0 0 0 0 0 0 0 0 0 0 0 0 0 0 0 0 0 0 0 0 0 0 0 0 0 0 0 0 0 0 0 0 0 0 0 0 0 0 0 0 0 0 0 0 0 0 0 0 0 0 0 0 0 0 0 0 0 0 0 0 0 0 0 0 0 0 0 0 0 0 0 0 0 0 0 0 0 0 0 0 0 0 0 0 0 0 0 0 0 0 0 0 0 0 0 0 
0 0 0 0 0 0 0 0 0 0 0 0 0 0 0 0 0 0 0 0 0 0 0 0 0 0 0 0 0 0 0 0 0 0 0 0 0 0 0 0 0 0 0 0 0 0 0 0 0 0 0 0 0 0 0 0 0 0 0 0 0 0 0 0 0 0 0 0 0 0 0 0 0 0 0 0 0 0 0 0 0 0 0 0 0 0 0 0 0 0 0 0 0 0 0 0 0 0 0 0 0 0 0 0 0 0 0 0 0 0 0 0 0 0 0 0 0 0 0 0 0 0 0 0 0 0 0 0 0 0 0 0 0 0 0 0 0 0 0 0 0 0 0 0 0 0 0 0 0 0 0 0 0 0 0 0 0 0 0 0 0 0 0 0 0 0 0 0 0 0 0 0 0 0 0 0 0 0 0 0 0 0 0 0 0 0 0 0 0 0 0 0 0 0 0 0 0 0 0 0 0 0 0 0 0 0 0 0 0 0 0 0 0 0 0 0 0 0 0 0 0 0 0 0 0 0 0 0 0 0 0 0 0 0 0 0 0 0 0 0 0 0 0 0 0 0 0 0 0 0 0 0 0 0 0 0 
0 0 0 0 0 0 0 0 0 0 0 0 0 0 0 0 0 0 0 0 0 0 0 0 0 0 0 0 0 0 0 0 0 0 0 0 0 0 0 0 0 0 0 0 0 0 0 0 0 0 0 0 0 0 0 0 0 0 0 0 0 0 0 0 0 0 0 0 0 0 0 0 0 0 0 0 0 0 0 0 0 0 0 0 0 0 0 0 0 0 0 0 0 0 0 0 0 0 0 0 0 0 0 0 0 0 0 0 0 0 0 0 0 0 0 0 0 0 0 0 0 0 0 0 0 0 0 0 0 0 0 0 0 0 0 0 0 0 0 0 0 0 0 0 0 0 0 0 0 0 0 0 0 0 0 0 0 0 0 0 0 0 0 0 0 0 0 0 0 0 0 0 0 0 0 0 0 0 0 0 0 0 0 0 0 0 0 0 0 0 0 0 0 0 0 0 0 0 0 0 0 0 0 0 0 0 0 0 0 0 0 0 0 0 0 0 0 0 0 0 0 0 0 0 0 0 0 0 0 0 0 0 0 0 0 0 0 0 0 0 0 0 0 0 0 0 0 0 0 0 0 0 0 0 0 0 
0 0 0 0 0 0 0 0 0 0 0 0 0 0 0 0 0 0 0 0 0 0 0 0 0 0 0 0 0 0 0 0 0 0 0 0 0 0 0 0 0 0 0 0 0 0 0 0 0 0 0 0 0 0 0 0 0 0 0 0 0 0 0 0 0 0 0 0 0 0 0 0 0 0 0 0 0 0 0 0 0 0 0 0 0 0 0 0 0 0 0 0 0 0 0 0 0 0 0 0 0 0 0 0 0 0 0 0 0 0 0 0 0 0 0 0 0 0 0 0 0 0 0 0 0 0 0 0 0 0 0 0 0 0 0 0 0 0 0 0 0 0 0 0 0 0 0 0 0 0 0 0 0 0 0 0 0 0 0 0 0 0 0 0 0 0 0 0 0 0 0 0 0 0 0 0 0 0 0 0 0 0 0 0 0 0 0 0 0 0 0 0 0 0 0 0 0 0 0 0 0 0 0 0 0 0 0 0 0 0 0 0 0 0 0 0 0 0 0 0 0 0 0 0 0 0 0 0 0 0 0 0 0 0 0 0 0 0 0 0 0 0 0 0 0 0 0 0 0 0 0 0 0 0 0 0 
0 0 0 0 0 0 0 0 0 0 0 0 0 0 0 0 0 0 0 0 0 0 0 0 0 0 0 0 0 0 0 0 0 0 0 0 0 0 0 0 0 0 0 0 0 0 0 0 0 0 0 0 0 0 0 0 0 0 0 0 0 0 0 0 1.17549e-38 1.17549e-38 1.17549e-38 1.17549e-38 1.17549e-38 1.17549e-38 1.17549e-38 1.17549e-38 1.17549e-38 1.17549e-38 1.17549e-38 1.17549e-38 1.17549e-38 1.17549e-38 1.17549e-38 1.17549e-38 1.17549e-38 1.17549e-38 1.17549e-38 1.17549e-38 1.17549e-38 1.17549e-38 1.17549e-38 1.17549e-38 1.17549e-38 1.17549e-38 1.17549e-38 1.17549e-38 1.17549e-38 1.17549e-38 1.17549e-38 1.17549e-38 1.17549e-38 1.17549e-38 1.17549e-38 1.17549e-38 1.17549e-38 1.17549e-38 1.17549e-38 1.17549e-38 1.17549e-38 1.17549e-38 1.17549e-38 1.17549e-38 1.17549e-38 1.17549e-38 1.17549e-38 1.17549e-38 1.17549e-38 1.17549e-38 1.17549e-38 1.17549e-38 1.17549e-38 1.17549e-38 1.17549e-38 1.17549e-38 1.17549e-38 1.17549e-38 1.17549e-38 1.17549e-38 1.17549e-38 1.17549e-38 1.17549e-38 1.17549e-38 1.17549e-38 1.17549e-38 1.17549e-38 1.17549e-38 1.17549e-38 1.17549e-38 1.17549e-38 1.17549e-38 1.17549e-38 1.17549e-38 1.17549e-38 1.17549e-38 1.17549e-38 1.17549e-38 1.17549e-38 1.17549e-38 1.17549e-38 1.17549e-38 1.17549e-38 1.17549e-38 1.17549e-38 1.17549e-38 1.17549e-38 1.17549e-38 1.17549e-38 1.17549e-38 1.17549e-38 1.17549e-38 1.17549e-38 1.17549e-38 1.17549e-38 1.17549e-38 1.17549e-38 1.17549e-38 1.17549e-38 1.17549e-38 1.17549e-38 1.17549e-38 1.17549e-38 1.17549e-38 1.17549e-38 1.17549e-38 1.17549e-38 1.17549e-38 1.17549e-38 1.17549e-38 1.17549e-38 1.17549e-38 1.17549e-38 1.17549e-38 1.17549e-38 1.17549e-38 1.17549e-38 1.17549e-38 1.17549e-38 1.17549e-38 1.17549e-38 1.17549e-38 1.17549e-38 1.17549e-38 1.17549e-38 1.17549e-38 1.17549e-38 1.17549e-38 0 0 0 0 0 0 0 0 0 0 0 0 0 0 0 0 0 0 0 0 0 0 0 0 0 0 0 0 0 0 0 0 0 0 0 0 0 0 0 0 0 0 0 0 0 0 0 0 0 0 0 0 0 0 0 0 0 0 0 0 0 0 0 0 
0 0 0 0 0 0 0 0 0 0 0 0 0 0 0 0 0 0 0 0 0 0 0 0 0 0 0 0 0 0 0 0 0 0 0 0 0 0 0 0 0 0 0 0 0 0 0 0 0 0 0 0 0 0 0 0 0 0 0 0 0 0 0 4.93708e-37 2.48029e-36 2.974e-36 2.974e-36 2.974e-36 2.974e-36 2.974e-36 2.974e-36 2.974e-36 2.974e-36 2.974e-36 2.974e-36 2.974e-36 2.974e-36 2.974e-36 2.974e-36 2.974e-36 2.974e-36 2.974e-36 2.974e-36 2.974e-36 2.974e-36 2.974e-36 2.974e-36 2.974e-36 2.974e-36 2.974e-36 2.974e-36 2.974e-36 2.974e-36 2.974e-36 2.974e-36 2.974e-36 2.974e-36 2.974e-36 2.974e-36 2.974e-36 2.974e-36 2.974e-36 2.974e-36 2.974e-36 2.974e-36 2.974e-36 2.974e-36 2.974e-36 2.974e-36 2.974e-36 2.974e-36 2.974e-36 2.974e-36 2.974e-36 2.974e-36 2.974e-36 2.974e-36 2.974e-36 2.974e-36 2.974e-36 2.974e-36 2.974e-36 2.974e-36 2.974e-36 2.974e-36 2.974e-36 2.974e-36 2.974e-36 2.974e-36 2.974e-36 2.974e-36 2.974e-36 2.974e-36 2.974e-36 2.974e-36 2.974e-36 2.974e-36 2.974e-36 2.974e-36 2.974e-36 2.974e-36 2.974e-36 2.974e-36 2.974e-36 2.974e-36 2.974e-36 2.974e-36 2.974e-36 2.974e-36 2.974e-36 2.974e-36 2.974e-36 2.974e-36 2.974e-36 2.974e-36 2.974e-36 2.974e-36 2.974e-36 2.974e-36 2.974e-36 2.974e-36 2.974e-36 2.974e-36 2.974e-36 2.974e-36 2.974e-36 2.974e-36 2.974e-36 2.974e-36 2.974e-36 2.974e-36 2.974e-36 2.974e-36 2.974e-36 2.974e-36 2.974e-36 2.974e-36 2.974e-36 2.974e-36 2.974e-36 2.974e-36 2.974e-36 2.974e-36 2.974e-36 2.974e-36 2.974e-36 2.974e-36 2.974e-36 2.974e-36 2.974e-36 2.974e-36 2.48029e-36 4.93708e-37 0 0 0 0 0 0 0 0 0 0 0 0 0 0 0 0 0 0 0 0 0 0 0 0 0 0 0 0 0 0 0 0 0 0 0 0 0 0 0 0 0 0 0 0 0 0 0 0 0 0 0 0 0 0 0 0 0 0 0 0 0 0 0 
0 0 0 0 0 0 0 0 0 0 0 0 0 0 0 0 0 0 0 0 0 0 0 0 0 0 0 0 0 0 0 0 0 0 0 0 0 0 0 0 0 0 0 0 0 0 0 0 0 0 0 0 0 0 0 0 0 0 0 0 0 0 1.0121e-35 9.15828e-35 2.76241e-34 3.57703e-34 3.67824e-34 3.67824e-34 3.67824e-34 3.67824e-34 3.67824e-34 3.67824e-34 3.67824e-34 3.67824e-34 3.67824e-34 3.67824e-34 3.67824e-34 3.67824e-34 3.67824e-34 3.67824e-34 3.67824e-34 3.67824e-34 3.67824e-34 3.67824e-34 3.67824e-34 3.67824e-34 3.67824e-34 3.67824e-34 3.67824e-34 3.67824e-34 3.67824e-34 3.67824e-34 3.67824e-34 3.67824e-34 3.67824e-34 3.67824e-34 3.67824e-34 3.67824e-34 3.67824e-34 3.67824e-34 3.67824e-34 3.67824e-34 3.67824e-34 3.67824e-34 3.67824e-34 3.67824e-34 3.67824e-34 3.67824e-34 3.67824e-34 3.67824e-34 3.67824e-34 3.67824e-34 3.67824e-34 3.67824e-34 3.67824e-34 3.67824e-34 3.67824e-34 3.67824e-34 3.67824e-34 3.67824e-34 3.67824e-34 3.67824e-34 3.67824e-34 3.67824e-34 3.67824e-34 3.67824e-34 3.67824e-34 3.67824e-34 3.67824e-34 3.67824e-34 3.67824e-34 3.67824e-34 3.67824e-34 3.67824e-34 3.67824e-34 3.67824e-34 3.67824e-34 3.67824e-34 3.67824e-34 3.67824e-34 3.67824e-34 3.67824e-34 3.67824e-34 3.67824e-34 3.67824e-34 3.67824e-34 3.67824e-34 3.67824e-34 3.67824e-34 3.67824e-34 3.67824e-34 3.67824e-34 3.67824e-34 3.67824e-34 3.67824e-34 3.67824e-34 3.67824e-34 3.67824e-34 3.67824e-34 3.67824e-34 3.67824e-34 3.67824e-34 3.67824e-34 3.67824e-34 3.67824e-34 3.67824e-34 3.67824e-34 3.67824e-34 3.67824e-34 3.67824e-34 3.67824e-34 3.67824e-34 3.67824e-34 3.67824e-34 3.67824e-34 3.67824e-34 3.67824e-34 3.67824e-34 3.67824e-34 3.67824e-34 3.67824e-34 3.67824e-34 3.67824e-34 3.67824e-34 3.67824e-34 3.67824e-34 3.67824e-34 3.67824e-34 3.67824e-34 3.67824e-34 3.57703e-34 2.76241e-34 9.15828e-35 1.0121e-35 0 0 0 0 0 0 0 0 0 0 0 0 0 0 0 0 0 0 0 0 0 0 0 0 0 0 0 0 0 0 0 0 0 0 0 0 0 0 0 0 0 0 0 0 0 0 0 0 0 0 0 0 0 0 0 0 0 0 0 0 0 0 
0 0 0 0 0 0 0 0 0 0 0 0 0 0 0 0 0 0 0 0 0 0 0 0 0 0 0 0 0 0 0 0 0 0 0 0 0 0 0 0 0 0 0 0 0 0 0 0 0 0 0 0 0 0 0 0 0 0 0 0 0 1.34947e-34 1.76443e-33 8.74842e-33 2.08894e-32 2.78733e-32 2.95028e-32 2.96378e-32 2.96378e-32 2.96378e-32 2.96378e-32 2.96378e-32 2.96378e-32 2.96378e-32 2.96378e-32 2.96378e-32 2.96378e-32 2.96378e-32 2.96378e-32 2.96378e-32 2.96378e-32 2.96378e-32 2.96378e-32 2.96378e-32 2.96378e-32 2.96378e-32 2.96378e-32 2.96378e-32 2.96378e-32 2.96378e-32 2.96378e-32 2.96378e-32 2.96378e-32 2.96378e-32 2.96378e-32 2.96378e-32 2.96378e-32 2.96378e-32 2.96378e-32 2.96378e-32 2.96378e-32 2.96378e-32 2.96378e-32 2.96378e-32 2.96378e-32 2.96378e-32 2.96378e-32 2.96378e-32 2.96378e-32 2.96378e-32 2.96378e-32 2.96378e-32 2.96378e-32 2.96378e-32 2.96378e-32 2.96378e-32 2.96378e-32 2.96378e-32 2.96378e-32 2.96378e-32 2.96378e-32 2.96378e-32 2.96378e-32 2.96378e-32 2.96378e-32 2.96378e-32 2.96378e-32 2.96378e-32 2.96378e-32 2.96378e-32 2.96378e-32 2.96378e-32 2.96378e-32 2.96378e-32 2.96378e-32 2.96378e-32 2.96378e-32 2.96378e-32 2.96378e-32 2.96378e-32 2.96378e-32 2.96378e-32 2.96378e-32 2.96378e-32 2.96378e-32 2.96378e-32 2.96378e-32 2.96378e-32 2.96378e-32 2.96378e-32 2.96378e-32 2.96378e-32 2.96378e-32 2.96378e-32 2.96378e-32 2.96378e-32 2.96378e-32 2.96378e-32 2.96378e-32 2.96378e-32 2.96378e-32 2.96378e-32 2.96378e-32 2.96378e-32 2.96378e-32 2.96378e-32 2.96378e-32 2.96378e-32 2.96378e-32 2.96378e-32 2.96378e-32 2.96378e-32 2.96378e-32 2.96378e-32 2.96378e-32 2.96378e-32 2.96378e-32 2.96378e-32 2.96378e-32 2.96378e-32 2.96378e-32 2.96378e-32 2.96378e-32 2.96378e-32 2.96378e-32 2.96378e-32 2.96378e-32 2.96378e-32 2.96378e-32 2.95028e-32 2.78733e-32 2.08894e-32 8.74842e-33 1.76443e-33 1.34947e-34 0 0 0 0 0 0 0 0 0 0 0 0 0 0 0 0 0 0 0 0 0 0 0 0 0 0 0 0 0 0 0 0 0 0 0 0 0 0 0 0 0 0 0 0 0 0 0 0 0 0 0 0 0 0 0 0 0 0 0 0 0 
0 0 0 0 0 0 0 0 0 0 0 0 0 0 0 0 0 0 0 0 0 0 0 0 0 0 0 0 0 0 0 0 0 0 0 0 0 0 0 0 0 0 0 0 0 0 0 0 0 0 0 0 0 0 0 0 0 0 0 0 1.31573e-33 2.25024e-32 1.5611e-31 5.66315e-31 1.18309e-30 1.5933e-30 1.72691e-30 1.74809e-30 1.74941e-30 1.74941e-30 1.74941e-30 1.74941e-30 1.74941e-30 1.74941e-30 1.74941e-30 1.74941e-30 1.74941e-30 1.74941e-30 1.74941e-30 1.74941e-30 1.74941e-30 1.74941e-30 1.74941e-30 1.74941e-30 1.74941e-30 1.74941e-30 1.74941e-30 1.74941e-30 1.74941e-30 1.74941e-30 1.74941e-30 1.74941e-30 1.74941e-30 1.74941e-30 1.74941e-30 1.74941e-30 1.74941e-30 1.74941e-30 1.74941e-30 1.74941e-30 1.74941e-30 1.74941e-30 1.74941e-30 1.74941e-30 1.74941e-30 1.74941e-30 1.74941e-30 1.74941e-30 1.74941e-30 1.74941e-30 1.74941e-30 1.74941e-30 1.74941e-30 1.74941e-30 1.74941e-30 1.74941e-30 1.74941e-30 1.74941e-30 1.74941e-30 1.74941e-30 1.74941e-30 1.74941e-30 1.74941e-30 1.74941e-30 1.74941e-30 1.74941e-30 1.74941e-30 1.74941e-30 1.74941e-30 1.74941e-30 1.74941e-30 1.74941e-30 1.74941e-30 1.74941e-30 1.74941e-30 1.74941e-30 1.74941e-30 1.74941e-30 1.74941e-30 1.74941e-30 1.74941e-30 1.74941e-30 1.74941e-30 1.74941e-30 1.74941e-30 1.74941e-30 1.74941e-30 1.74941e-30 1.74941e-30 1.74941e-30 1.74941e-30 1.74941e-30 1.74941e-30 1.74941e-30 1.74941e-30 1.74941e-30 1.74941e-30 1.74941e-30 1.74941e-30 1.74941e-30 1.74941e-30 1.74941e-30 1.74941e-30 1.74941e-30 1.74941e-30 1.74941e-30 1.74941e-30 1.74941e-30 1.74941e-30 1.74941e-30 1.74941e-30 1.74941e-30 1.74941e-30 1.74941e-30 1.74941e-30 1.74941e-30 1.74941e-30 1.74941e-30 1.74941e-30 1.74941e-30 1.74941e-30 1.74941e-30 1.74941e-30 1.74941e-30 1.74941e-30 1.74941e-30 1.74941e-30 1.74941e-30 1.74809e-30 1.72691e-30 1.5933e-30 1.18309e-30 5.66315e-31 1.5611e-31 2.25024e-32 1.31573e-33 0 0 0 0 0 0 0 0 0 0 0 0 0 0 0 0 0 0 0 0 0 0 0 0 0 0 0 0 0 0 0 0 0 0 0 0 0 0 0 0 0 0 0 0 0 0 0 0 0 0 0 0 0 0 0 0 0 0 0 0 
0 0 0 0 0 0 0 0 0 0 0 0 0 0 0 0 0 0 0 0 0 0 0 0 0 0 0 0 0 0 0 0 0 0 0 0 0 0 0 0 0 0 0 0 0 0 0 0 0 0 0 0 0 0 0 0 0 0 0 9.99955e-33 2.11306e-31 1.88768e-30 9.28412e-30 2.76624e-29 5.29828e-29 7.1361e-29 7.87575e-29 8.04339e-29 8.06352e-29 8.06452e-29 8.06452e-29 8.06452e-29 8.06452e-29 8.06452e-29 8.06452e-29 8.06452e-29 8.06452e-29 8.06452e-29 8.06452e-29 8.06452e-29 8.06452e-29 8.06452e-29 8.06452e-29 8.06452e-29 8.06452e-29 8.06452e-29 8.06452e-29 8.06452e-29 8.06452e-29 8.06452e-29 8.06452e-29 8.06452e-29 8.06452e-29 8.06452e-29 8.06452e-29 8.06452e-29 8.06452e-29 8.06452e-29 8.06452e-29 8.06452e-29 8.06452e-29 8.06452e-29 8.06452e-29 8.06452e-29 8.06452e-29 8.06452e-29 8.06452e-29 8.06452e-29 8.06452e-29 8.06452e-29 8.06452e-29 8.06452e-29 8.06452e-29 8.06452e-29 8.06452e-29 8.06452e-29 8.06452e-29 8.06452e-29 8.06452e-29 8.06452e-29 8.06452e-29 8.06452e-29 8.06452e-29 8.06452e-29 8.06452e-29 8.06452e-29 8.06452e-29 8.06452e-29 8.06452e-29 8.06452e-29 8.06452e-29 8.06452e-29 8.06452e-29 8.06452e-29 8.06452e-29 8.06452e-29 8.06452e-29 8.06452e-29 8.06452e-29 8.06452e-29 8.06452e-29 8.06452e-29 8.06452e-29 8.06452e-29 8.06452e-29 8.06452e-29 8.06452e-29 8.06452e-29 8.06452e-29 8.06452e-29 8.06452e-29 8.06452e-29 8.06452e-29 8.06452e-29 8.06452e-29 8.06452e-29 8.06452e-29 8.06452e-29 8.06452e-29 8.06452e-29 8.06452e-29 8.06452e-29 8.06452e-29 8.06452e-29 8.06452e-29 8.06452e-29 8.06452e-29 8.06452e-29 8.06452e-29 8.06452e-29 8.06452e-29 8.06452e-29 8.06452e-29 8.06452e-29 8.06452e-29 8.06452e-29 8.06452e-29 8.06452e-29 8.06452e-29 8.06452e-29 8.06452e-29 8.06452e-29 8.06452e-29 8.06452e-29 8.06452e-29 8.06452e-29 8.06452e-29 8.06352e-29 8.04339e-29 7.87575e-29 7.1361e-29 5.29828e-29 2.76624e-29 9.28412e-30 1.88768e-30 2.11306e-31 9.99955e-33 0 0 0 0 0 0 0 0 0 0 0 0 0 0 0 0 0 0 0 0 0 0 0 0 0 0 0 0 0 0 0 0 0 0 0 0 0 0 0 0 0 0 0 0 0 0 0 0 0 0 0 0 0 0 0 0 0 0 0 
0 0 0 0 0 0 0 0 0 0 0 0 0 0 0 0 0 0 0 0 0 0 0 0 0 0 0 0 0 0 0 0 0 0 0 0 0 0 0 0 0 0 0 0 0 0 0 0 0 0 0 0 0 0 0 0 0 0 6.16639e-32 1.5516e-30 1.69722e-29 1.05778e-28 4.15094e-28 1.07919e-27 1.94353e-27 2.60762e-27 2.91694e-27 3.00575e-27 3.02117e-27 3.02266e-27 3.02272e-27 3.02272e-27 3.02272e-27 3.02272e-27 3.02272e-27 3.02272e-27 3.02272e-27 3.02272e-27 3.02272e-27 3.02272e-27 3.02272e-27 3.02272e-27 3.02272e-27 3.02272e-27 3.02272e-27 3.02272e-27 3.02272e-27 3.02272e-27 3.02272e-27 3.02272e-27 3.02272e-27 3.02272e-27 3.02272e-27 3.02272e-27 3.02272e-27 3.02272e-27 3.02272e-27 3.02272e-27 3.02272e-27 3.02272e-27 3.02272e-27 3.02272e-27 3.02272e-27 3.02272e-27 3.02272e-27 3.02272e-27 3.02272e-27 3.02272e-27 3.02272e-27 3.02272e-27 3.02272e-27 3.02272e-27 3.02272e-27 3.02272e-27 3.02272e-27 3.02272e-27 3.02272e-27 3.02272e-27 3.02272e-27 3.02272e-27 3.02272e-27 3.02272e-27 3.02272e-27 3.02272e-27 3.02272e-27 3.02272e-27 3.02272e-27 3.02272e-27 3.02272e-27 3.02272e-27 3.02272e-27 3.02272e-27 3.02272e-27 3.02272e-27 3.02272e-27 3.02272e-27 3.02272e-27 3.02272e-27 3.02272e-27 3.02272e-27 3.02272e-27 3.02272e-27 3.02272e-27 3.02272e-27 3.02272e-27 3.02272e-27 3.02272e-27 3.02272e-27 3.02272e-27 3.02272e-27 3.02272e-27 3.02272e-27 3.02272e-27 3.02272e-27 3.02272e-27 3.02272e-27 3.02272e-27 3.02272e-27 3.02272e-27 3.02272e-27 3.02272e-27 3.02272e-27 3.02272e-27 3.02272e-27 3.02272e-27 3.02272e-27 3.02272e-27 3.02272e-27 3.02272e-27 3.02272e-27 3.02272e-27 3.02272e-27 3.02272e-27 3.02272e-27 3.02272e-27 3.02272e-27 3.02272e-27 3.02272e-27 3.02272e-27 3.02272e-27 3.02272e-27 3.02272e-27 3.02272e-27 3.02272e-27 3.02272e-27 3.02272e-27 3.02266e-27 3.02117e-27 3.00575e-27 2.91694e-27 2.60762e-27 1.94353e-27 1.07919e-27 4.15094e-28 1.05778e-28 1.69722e-29 1.5516e-30 6.16639e-32 0 0 0 0 0 0 0 0 0 0 0 0 0 0 0 0 0 0 0 0 0 0 0 0 0 0 0 0 0 0 0 0 0 0 0 0 0 0 0 0 0 0 0 0 0 0 0 0 0 0 0 0 0 0 0 0 0 0 
0 0 0 0 0 0 0 0 0 0 0 0 0 0 0 0 0 0 0 0 0 0 0 0 0 0 0 0 0 0 0 0 0 0 0 0 0 0 0 0 0 0 0 0 0 0 0 0 0 0 0 0 0 0 0 0 0 3.17129e-31 9.2584e-30 1.19893e-28 9.0636e-28 4.43722e-27 1.48083e-26 3.48262e-26 5.98709e-26 7.98888e-26 9.02599e-26 9.37907e-26 9.45772e-26 9.46878e-26 9.46968e-26 9.46971e-26 9.46971e-26 9.46971e-26 9.46971e-26 9.46971e-26 9.46971e-26 9.46971e-26 9.46971e-26 9.46971e-26 9.46971e-26 9.46971e-26 9.46971e-26 9.46971e-26 9.46971e-26 9.46971e-26 9.46971e-26 9.46971e-26 9.46971e-26 9.46971e-26 9.46971e-26 9.46971e-26 9.46971e-26 9.46971e-26 9.46971e-26 9.46971e-26 9.46971e-26 9.46971e-26 9.46971e-26 9.46971e-26 9.46971e-26 9.46971e-26 9.46971e-26 9.46971e-26 9.46971e-26 9.46971e-26 9.46971e-26 9.46971e-26 9.46971e-26 9.46971e-26 9.46971e-26 9.46971e-26 9.46971e-26 9.46971e-26 9.46971e-26 9.46971e-26 9.46971e-26 9.46971e-26 9.46971e-26 9.46971e-26 9.46971e-26 9.46971e-26 9.46971e-26 9.46971e-26 9.46971e-26 9.46971e-26 9.46971e-26 9.46971e-26 9.46971e-26 9.46971e-26 9.46971e-26 9.46971e-26 9.46971e-26 9.46971e-26 9.46971e-26 9.46971e-26 9.46971e-26 9.46971e-26 9.46971e-26 9.46971e-26 9.46971e-26 9.46971e-26 9.46971e-26 9.46971e-26 9.46971e-26 9.46971e-26 9.46971e-26 9.46971e-26 9.46971e-26 9.46971e-26 9.46971e-26 9.46971e-26 9.46971e-26 9.46971e-26 9.46971e-26 9.46971e-26 9.46971e-26 9.46971e-26 9.46971e-26 9.46971e-26 9.46971e-26 9.46971e-26 9.46971e-26 9.46971e-26 9.46971e-26 9.46971e-26 9.46971e-26 9.46971e-26 9.46971e-26 9.46971e-26 9.46971e-26 9.46971e-26 9.46971e-26 9.46971e-26 9.46971e-26 9.46971e-26 9.46971e-26 9.46971e-26 9.46971e-26 9.46971e-26 9.46971e-26 9.46971e-26 9.46971e-26 9.46971e-26 9.46971e-26 9.46968e-26 9.46878e-26 9.45772e-26 9.37907e-26 9.02599e-26 7.98888e-26 5.98709e-26 3.48262e-26 1.48083e-26 4.43722e-27 9.0636e-28 1.19893e-28 9.2584e-30 3.17129e-31 0 0 0 0 0 0 0 0 0 0 0 0 0 0 0 0 0 0 0 0 0 0 0 0 0 0 0 0 0 0 0 0 0 0 0 0 0 0 0 0 0 0 0 0 0 0 0 0 0 0 0 0 0 0 0 0 0 
0 0 0 0 0 0 0 0 0 0 0 0 0 0 0 0 0 0 0 0 0 0 0 0 0 0 0 0 0 0 0 0 0 0 0 0 0 0 0 0 0 0 0 0 0 0 0 0 0 0 0 0 0 0 0 0 1.38744e-30 4.61026e-29 6.89936e-28 6.13721e-27 3.61019e-26 1.48112e-25 4.3724e-25 9.52054e-25 1.57778e-24 2.09259e-24 2.38172e-24 2.49373e-24 2.5237e-24 2.52914e-24 2.52979e-24 2.52983e-24 2.52983e-24 2.52983e-24 2.52983e-24 2.52983e-24 2.52983e-24 2.52983e-24 2.52983e-24 2.52983e-24 2.52983e-24 2.52983e-24 2.52983e-24 2.52983e-24 2.52983e-24 2.52983e-24 2.52983e-24 2.52983e-24 2.52983e-24 2.52983e-24 2.52983e-24 2.52983e-24 2.52983e-24 2.52983e-24 2.52983e-24 2.52983e-24 2.52983e-24 2.52983e-24 2.52983e-24 2.52983e-24 2.52983e-24 2.52983e-24 2.52983e-24 2.52983e-24 2.52983e-24 2.52983e-24 2.52983e-24 2.52983e-24 2.52983e-24 2.52983e-24 2.52983e-24 2.52983e-24 2.52983e-24 2.52983e-24 2.52983e-24 2.52983e-24 2.52983e-24 2.52983e-24 2.52983e-24 2.52983e-24 2.52983e-24 2.52983e-24 2.52983e-24 2.52983e-24 2.52983e-24 2.52983e-24 2.52983e-24 2.52983e-24 2.52983e-24 2.52983e-24 2.52983e-24 2.52983e-24 2.52983e-24 2.52983e-24 2.52983e-24 2.52983e-24 2.52983e-24 2.52983e-24 2.52983e-24 2.52983e-24 2.52983e-24 2.52983e-24 2.52983e-24 2.52983e-24 2.52983e-24 2.52983e-24 2.52983e-24 2.52983e-24 2.52983e-24 2.52983e-24 2.52983e-24 2.52983e-24 2.52983e-24 2.52983e-24 2.52983e-24 2.52983e-24 2.52983e-24 2.52983e-24 2.52983e-24 2.52983e-24 2.52983e-24 2.52983e-24 2.52983e-24 2.52983e-24 2.52983e-24 2.52983e-24 2.52983e-24 2.52983e-24 2.52983e-24 2.52983e-24 2.52983e-24 2.52983e-24 2.52983e-24 2.52983e-24 2.52983e-24 2.52983e-24 2.52983e-24 2.52983e-24 2.52983e-24 2.52983e-24 2.52983e-24 2.52983e-24 2.52983e-24 2.52983e-24 2.52983e-24 2.52979e-24 2.52914e-24 2.5237e-24 2.49373e-24 2.38172e-24 2.09259e-24 1.57778e-24 9.52054e-25 4.3724e-25 1.48112e-25 3.61019e-26 6.13721e-27 6.89936e-28 4.61026e-29 1.38744e-30 0 0 0 0 0 0 0 0 0 0 0 0 0 0 0 0 0 0 0 0 0 0 0 0 0 0 0 0 0 0 0 0 0 0 0 0 0 0 0 0 0 0 0 0 0 0 0 0 0 0 0 0 0 0 0 0 