<?xml version="1.0"?>
<VTKFile type="ImageData" version="0.1" byte_order="LittleEndian">
  <ImageData WholeExtent="0 255 0 255 0 0" Origin="0 0 0" Spacing="1 1 1">
  <Piece Extent="0 255 0 255 0 0">
    <PointData>
      <DataArray type="Float32" Name="scalar_data" format="ascii" >0 0 0 0 0 0 0 0 0 0 0 0 0 0 0 0 0 0 0 0 0 0 0 0 0 0 0 0 0 0 0 0 0 0 0 0 0 0 0 0 0 0 0 0 0 0 0 0 0 0 0 0 0 0 0 0 0 0 0 0 0 0 0 0 0 0 0 0 0 0 0 0 0 0 0 0 0 0 0 0 0 0 0 0 0 0 0 0 0 0 0 0 0 0 0 0 0 0 0 0 0 0 0 0 0 0 0 0 0 0 0 0 0 0 0 0 0 0 0 0 0 0 0 0 0 0 0 0 0 0 0 0 0 0 0 0 0 0 0 0 0 0 0 0 0 0 0 0 0 0 0 0 0 0 0 0 0 0 0 0 0 0 0 0 0 0 0 0 0 0 0 0 0 0 0 0 0 0 0 0 0 0 0 0 0 0 0 0 0 0 0 0 0 0 0 0 0 0 0 0 0 0 0 0 0 0 0 0 0 0 0 0 0 0 0 0 0 0 0 0 0 0 0 0 0 0 0 0 0 0 0 0 0 0 0 0 0 0 0 0 0 0 0 0 0 0 0 0 0 0 0 0 0 0 0 0 
0 5.51327e-12 1.15634e-11 1.87284e-11 2.76705e-11 3.91838e-11 5.42486e-11 7.40948e-11 1.00277e-10 1.34764e-10 1.80046e-10 2.39264e-10 3.16358e-10 4.1625e-10 5.45055e-10 7.10323e-10 9.21324e-10 1.18937e-09 1.52819e-09 1.95432e-09 2.48758e-09 3.15156e-09 3.97418e-09 4.98821e-09 6.23195e-09 7.74977e-09 9.59279e-09 1.18195e-08 1.44962e-08 1.76977e-08 2.15077e-08 2.60192e-08 3.13344e-08 3.7565e-08 4.48321e-08 5.32655e-08 6.30032e-08 7.41904e-08 8.69783e-08 1.01522e-07 1.17981e-07 1.36512e-07 1.57272e-07 1.80411e-07 2.06073e-07 2.3439e-07 2.65478e-07 2.99439e-07 3.36349e-07 3.76264e-07 4.1921e-07 4.65186e-07 5.14158e-07 5.66057e-07 6.20782e-07 6.78196e-07 7.38128e-07 8.00374e-07 8.64696e-07 9.3083e-07 9.98485e-07 1.06735e-06 1.13708e-06 1.20735e-06 1.27779e-06 1.34806e-06 1.41779e-06 1.48665e-06 1.55431e-06 1.62044e-06 1.68476e-06 1.74701e-06 1.80694e-06 1.86435e-06 1.91908e-06 1.97098e-06 2.01995e-06 2.06592e-06 2.10887e-06 2.14879e-06 2.1857e-06 2.21966e-06 2.25075e-06 2.27906e-06 2.30472e-06 2.32786e-06 2.34862e-06 2.36715e-06 2.38361e-06 2.39816e-06 2.41095e-06 2.42213e-06 2.43187e-06 2.4403e-06 2.44757e-06 2.4538e-06 2.45912e-06 2.46363e-06 2.46744e-06 2.47064e-06 2.47332e-06 2.47554e-06 2.47739e-06 2.4789e-06 2.48015e-06 2.48116e-06 2.48198e-06 2.48265e-06 2.48318e-06 2.48361e-06 2.48395e-06 2.48421e-06 2.48443e-06 2.48459e-06 2.48472e-06 2.48482e-06 2.4849e-06 2.48496e-06 2.485e-06 2.48503e-06 2.48506e-06 2.48508e-06 2.48509e-06 2.4851e-06 2.48511e-06 2.48512e-06 2.48512e-06 2.48512e-06 2.48512e-06 2.48512e-06 2.48512e-06 2.48511e-06 2.4851e-06 2.48509e-06 2.48508e-06 2.48506e-06 2.48503e-06 2.485e-06 2.48496e-06 2.4849e-06 2.48482e-06 2.48472e-06 2.48459e-06 2.48443e-06 2.48421e-06 2.48395e-06 2.48361e-06 2.48318e-06 2.48265e-06 2.48198e-06 2.48116e-06 2.48015e-06 2.4789e-06 2.47739e-06 2.47554e-06 2.47332e-06 2.47064e-06 2.46744e-06 2.46363e-06 2.45912e-06 2.4538e-06 2.44757e-06 2.4403e-06 2.43187e-06 2.42213e-06 2.41095e-06 2.39816e-06 2.38361e-06 2.36715e-06 2.34862e-06 2.32786e-06 2.30472e-06 2.27906e-06 2.25075e-06 2.21966e-06 2.1857e-06 2.14879e-06 2.10887e-06 2.06592e-06 2.01995e-06 1.97098e-06 1.91908e-06 1.86435e-06 1.80694e-06 1.74701e-06 1.68476e-06 1.62044e-06 1.55431e-06 1.48665e-06 1.41779e-06 1.34806e-06 1.27779e-06 1.20735e-06 1.13708e-06 1.06735e-06 9.98485e-07 9.3083e-07 8.64696e-07 8.00374e-07 7.38128e-07 6.78196e-07 6.20782e-07 5.66057e-07 5.14158e-07 4.65186e-07 4.1921e-07 3.76264e-07 3.36349e-07 2.99439e-07 2.65478e-07 2.3439e-07 2.06073e-07 1.80411e-07 1.57272e-07 1.36512e-07 1.17981e-07 1.01522e-07 8.69783e-08 7.41904e-08 6.30032e-08 5.32655e-08 4.48321e-08 3.7565e-08 3.13344e-08 2.60192e-08 2.15077e-08 1.76977e-08 1.44962e-08 1.18195e-08 9.59279e-09 7.74977e-09 6.23195e-09 4.98821e-09 3.97418e-09 3.15156e-09 2.48758e-09 1.95432e-09 1.52819e-09 1.18937e-09 9.21324e-10 7.10323e-10 5.45055e-10 4.1625e-10 3.16358e-10 2.39264e-10 1.80046e-10 1.34764e-10 1.00277e-10 7.40948e-11 5.42486e-11 3.91838e-11 2.76705e-11 1.87284e-11 1.15634e-11 5.51327e-12 0 
0 1.15634e-11 2.42527e-11 3.92795e-11 5.80326e-11 8.2177e-11 1.13768e-10 1.55384e-10 2.10283e-10 2.82595e-10 3.77538e-10 5.01695e-10 6.63328e-10 8.72753e-10 1.14278e-09 1.48925e-09 1.93157e-09 2.49347e-09 3.2037e-09 4.09693e-09 5.21469e-09 6.60643e-09 8.33061e-09 1.0456e-08 1.30627e-08 1.62438e-08 2.01064e-08 2.47729e-08 3.03825e-08 3.70918e-08 4.50761e-08 5.45302e-08 6.56683e-08 7.87246e-08 9.39525e-08 1.11624e-07 1.32028e-07 1.55469e-07 1.82264e-07 2.12738e-07 2.47223e-07 2.86049e-07 3.29545e-07 3.78026e-07 4.31792e-07 4.91119e-07 5.56253e-07 6.27402e-07 7.04731e-07 7.88355e-07 8.78329e-07 9.74649e-07 1.07724e-06 1.18597e-06 1.30062e-06 1.4209e-06 1.54645e-06 1.67685e-06 1.8116e-06 1.95015e-06 2.09188e-06 2.23613e-06 2.38222e-06 2.52942e-06 2.67699e-06 2.82419e-06 2.97028e-06 3.11454e-06 3.25627e-06 3.39481e-06 3.52957e-06 3.65997e-06 3.78552e-06 3.9058e-06 4.02045e-06 4.12917e-06 4.23177e-06 4.32809e-06 4.41806e-06 4.50169e-06 4.57902e-06 4.65017e-06 4.7153e-06 4.77463e-06 4.82839e-06 4.87687e-06 4.92037e-06 4.9592e-06 4.99368e-06 5.02415e-06 5.05095e-06 5.07439e-06 5.09479e-06 5.11247e-06 5.12769e-06 5.14075e-06 5.15189e-06 5.16134e-06 5.16933e-06 5.17604e-06 5.18165e-06 5.18631e-06 5.19017e-06 5.19336e-06 5.19596e-06 5.19809e-06 5.19981e-06 5.2012e-06 5.20232e-06 5.20321e-06 5.20392e-06 5.20449e-06 5.20493e-06 5.20528e-06 5.20555e-06 5.20575e-06 5.20592e-06 5.20604e-06 5.20613e-06 5.20621e-06 5.20626e-06 5.2063e-06 5.20633e-06 5.20635e-06 5.20637e-06 5.20638e-06 5.20639e-06 5.20639e-06 5.20639e-06 5.20639e-06 5.20638e-06 5.20637e-06 5.20635e-06 5.20633e-06 5.2063e-06 5.20626e-06 5.20621e-06 5.20613e-06 5.20604e-06 5.20592e-06 5.20575e-06 5.20555e-06 5.20528e-06 5.20493e-06 5.20449e-06 5.20392e-06 5.20321e-06 5.20232e-06 5.2012e-06 5.19981e-06 5.19809e-06 5.19596e-06 5.19336e-06 5.19017e-06 5.18631e-06 5.18165e-06 5.17604e-06 5.16933e-06 5.16134e-06 5.15189e-06 5.14075e-06 5.12769e-06 5.11247e-06 5.09479e-06 5.07439e-06 5.05095e-06 5.02415e-06 4.99368e-06 4.9592e-06 4.92037e-06 4.87687e-06 4.82839e-06 4.77463e-06 4.7153e-06 4.65017e-06 4.57902e-06 4.50169e-06 4.41806e-06 4.32809e-06 4.23177e-06 4.12917e-06 4.02045e-06 3.9058e-06 3.78552e-06 3.65997e-06 3.52957e-06 3.39481e-06 3.25627e-06 3.11454e-06 2.97028e-06 2.82419e-06 2.67699e-06 2.52942e-06 2.38222e-06 2.23613e-06 2.09188e-06 1.95015e-06 1.8116e-06 1.67685e-06 1.54645e-06 1.4209e-06 1.30062e-06 1.18597e-06 1.07724e-06 9.74649e-07 8.78329e-07 7.88355e-07 7.04731e-07 6.27402e-07 5.56253e-07 4.91119e-07 4.31792e-07 3.78026e-07 3.29545e-07 2.86049e-07 2.47223e-07 2.12738e-07 1.82264e-07 1.55469e-07 1.32028e-07 1.11624e-07 9.39525e-08 7.87246e-08 6.56683e-08 5.45302e-08 4.50761e-08 3.70918e-08 3.03825e-08 2.47729e-08 2.01064e-08 1.62438e-08 1.30627e-08 1.0456e-08 8.33061e-09 6.60643e-09 5.21469e-09 4.09693e-09 3.2037e-09 2.49347e-09 1.93157e-09 1.48925e-09 1.14278e-09 8.72753e-10 6.63328e-10 5.01695e-10 3.77538e-10 2.82595e-10 2.10283e-10 1.55384e-10 1.13768e-10 8.2177e-11 5.80326e-11 3.92795e-11 2.42527e-11 1.15634e-11 0 
0 1.87284e-11 3.92795e-11 6.36153e-11 9.39836e-11 1.3308e-10 1.8423e-10 2.51609e-10 3.4049e-10 4.57554e-10 6.11248e-10 8.12224e-10 1.07385e-09 1.41281e-09 1.84986e-09 2.41058e-09 3.12641e-09 4.03571e-09 5.18499e-09 6.63035e-09 8.43896e-09 1.06908e-08 1.34804e-08 1.69189e-08 2.11361e-08 2.62824e-08 3.25309e-08 4.00796e-08 4.91535e-08 6.0006e-08 7.29205e-08 8.82118e-08 1.06226e-07 1.27343e-07 1.51971e-07 1.8055e-07 2.13547e-07 2.51455e-07 2.94786e-07 3.44065e-07 3.99828e-07 4.62611e-07 5.32943e-07 6.11334e-07 6.98269e-07 7.94194e-07 8.99506e-07 1.01454e-06 1.13957e-06 1.27477e-06 1.42024e-06 1.57596e-06 1.74183e-06 1.91761e-06 2.10296e-06 2.29741e-06 2.50039e-06 2.7112e-06 2.92905e-06 3.15303e-06 3.38215e-06 3.61536e-06 3.85153e-06 4.08949e-06 4.32806e-06 4.56603e-06 4.8022e-06 5.03541e-06 5.26453e-06 5.48851e-06 5.70635e-06 5.91716e-06 6.12014e-06 6.3146e-06 6.49995e-06 6.67573e-06 6.84159e-06 6.99732e-06 7.14279e-06 7.27799e-06 7.40301e-06 7.51805e-06 7.62336e-06 7.71929e-06 7.80622e-06 7.88461e-06 7.95495e-06 8.01773e-06 8.07349e-06 8.12277e-06 8.1661e-06 8.20401e-06 8.23701e-06 8.26559e-06 8.29021e-06 8.31133e-06 8.32935e-06 8.34464e-06 8.35755e-06 8.3684e-06 8.37748e-06 8.38503e-06 8.39127e-06 8.39642e-06 8.40064e-06 8.40408e-06 8.40687e-06 8.40912e-06 8.41093e-06 8.41237e-06 8.41352e-06 8.41443e-06 8.41515e-06 8.41571e-06 8.41614e-06 8.41648e-06 8.41674e-06 8.41694e-06 8.4171e-06 8.41721e-06 8.4173e-06 8.41737e-06 8.41741e-06 8.41745e-06 8.41748e-06 8.41749e-06 8.4175e-06 8.41751e-06 8.41751e-06 8.4175e-06 8.41749e-06 8.41748e-06 8.41745e-06 8.41741e-06 8.41737e-06 8.4173e-06 8.41721e-06 8.4171e-06 8.41694e-06 8.41674e-06 8.41648e-06 8.41614e-06 8.41571e-06 8.41515e-06 8.41443e-06 8.41352e-06 8.41237e-06 8.41093e-06 8.40912e-06 8.40687e-06 8.40408e-06 8.40064e-06 8.39642e-06 8.39127e-06 8.38503e-06 8.37748e-06 8.3684e-06 8.35755e-06 8.34464e-06 8.32935e-06 8.31133e-06 8.29021e-06 8.26559e-06 8.23701e-06 8.20401e-06 8.1661e-06 8.12277e-06 8.07349e-06 8.01773e-06 7.95495e-06 7.88461e-06 7.80622e-06 7.71929e-06 7.62336e-06 7.51805e-06 7.40301e-06 7.27799e-06 7.14279e-06 6.99732e-06 6.84159e-06 6.67573e-06 6.49995e-06 6.3146e-06 6.12014e-06 5.91716e-06 5.70635e-06 5.48851e-06 5.26453e-06 5.03541e-06 4.8022e-06 4.56603e-06 4.32806e-06 4.08949e-06 3.85153e-06 3.61536e-06 3.38215e-06 3.15303e-06 2.92905e-06 2.7112e-06 2.50039e-06 2.29741e-06 2.10296e-06 1.91761e-06 1.74183e-06 1.57596e-06 1.42024e-06 1.27477e-06 1.13957e-06 1.01454e-06 8.99506e-07 7.94194e-07 6.98269e-07 6.11334e-07 5.32943e-07 4.62611e-07 3.99828e-07 3.44065e-07 2.94786e-07 2.51455e-07 2.13547e-07 1.8055e-07 1.51971e-07 1.27343e-07 1.06226e-07 8.82118e-08 7.29205e-08 6.0006e-08 4.91535e-08 4.00796e-08 3.25309e-08 2.62824e-08 2.11361e-08 1.69189e-08 1.34804e-08 1.06908e-08 8.43896e-09 6.63035e-09 5.18499e-09 4.03571e-09 3.12641e-09 2.41058e-09 1.84986e-09 1.41281e-09 1.07385e-09 8.12224e-10 6.11248e-10 4.57554e-10 3.4049e-10 2.51609e-10 1.8423e-10 1.3308e-10 9.39836e-11 6.36153e-11 3.92795e-11 1.87284e-11 0 
0 2.76705e-11 5.80327e-11 9.39836e-11 1.38842e-10 1.96589e-10 2.72134e-10 3.71639e-10 5.02889e-10 6.75744e-10 9.02671e-10 1.19939e-09 1.58563e-09 2.08601e-09 2.73114e-09 3.55878e-09 4.6153e-09 5.9573e-09 7.65339e-09 9.7863e-09 1.24551e-08 1.57778e-08 1.98938e-08 2.4967e-08 3.11887e-08 3.87807e-08 4.79984e-08 5.91338e-08 7.25183e-08 8.85256e-08 1.07574e-07 1.30126e-07 1.56695e-07 1.87836e-07 2.24155e-07 2.663e-07 3.14958e-07 3.70856e-07 4.34747e-07 5.07408e-07 5.89626e-07 6.82193e-07 7.85886e-07 9.01458e-07 1.02962e-06 1.17104e-06 1.32629e-06 1.49588e-06 1.68018e-06 1.87949e-06 2.09392e-06 2.32347e-06 2.56796e-06 2.82707e-06 3.10027e-06 3.3869e-06 3.68608e-06 3.99681e-06 4.31791e-06 4.64804e-06 4.98575e-06 5.32948e-06 5.67758e-06 6.02832e-06 6.37995e-06 6.7307e-06 7.0788e-06 7.42253e-06 7.76024e-06 8.09037e-06 8.41147e-06 8.7222e-06 9.02138e-06 9.30801e-06 9.58121e-06 9.84032e-06 1.00848e-05 1.03144e-05 1.05288e-05 1.07281e-05 1.09124e-05 1.1082e-05 1.12372e-05 1.13787e-05 1.15068e-05 1.16224e-05 1.17261e-05 1.18187e-05 1.19009e-05 1.19735e-05 1.20374e-05 1.20933e-05 1.2142e-05 1.21841e-05 1.22204e-05 1.22516e-05 1.22782e-05 1.23007e-05 1.23198e-05 1.23358e-05 1.23491e-05 1.23603e-05 1.23695e-05 1.23771e-05 1.23833e-05 1.23884e-05 1.23925e-05 1.23958e-05 1.23985e-05 1.24006e-05 1.24023e-05 1.24037e-05 1.24047e-05 1.24055e-05 1.24062e-05 1.24067e-05 1.24071e-05 1.24074e-05 1.24076e-05 1.24078e-05 1.24079e-05 1.2408e-05 1.24081e-05 1.24081e-05 1.24082e-05 1.24082e-05 1.24082e-05 1.24082e-05 1.24082e-05 1.24082e-05 1.24082e-05 1.24082e-05 1.24081e-05 1.24081e-05 1.2408e-05 1.24079e-05 1.24078e-05 1.24076e-05 1.24074e-05 1.24071e-05 1.24067e-05 1.24062e-05 1.24055e-05 1.24047e-05 1.24037e-05 1.24023e-05 1.24006e-05 1.23985e-05 1.23958e-05 1.23925e-05 1.23884e-05 1.23833e-05 1.23771e-05 1.23695e-05 1.23603e-05 1.23491e-05 1.23358e-05 1.23198e-05 1.23007e-05 1.22782e-05 1.22516e-05 1.22204e-05 1.21841e-05 1.2142e-05 1.20933e-05 1.20374e-05 1.19735e-05 1.19009e-05 1.18187e-05 1.17261e-05 1.16224e-05 1.15068e-05 1.13787e-05 1.12372e-05 1.1082e-05 1.09124e-05 1.07281e-05 1.05288e-05 1.03144e-05 1.00848e-05 9.84032e-06 9.58121e-06 9.30801e-06 9.02138e-06 8.7222e-06 8.41147e-06 8.09037e-06 7.76024e-06 7.42253e-06 7.0788e-06 6.7307e-06 6.37995e-06 6.02832e-06 5.67758e-06 5.32948e-06 4.98575e-06 4.64804e-06 4.31791e-06 3.99681e-06 3.68608e-06 3.3869e-06 3.10027e-06 2.82707e-06 2.56796e-06 2.32347e-06 2.09392e-06 1.87949e-06 1.68018e-06 1.49588e-06 1.32629e-06 1.17104e-06 1.02962e-06 9.01458e-07 7.85886e-07 6.82193e-07 5.89626e-07 5.07408e-07 4.34747e-07 3.70856e-07 3.14958e-07 2.663e-07 2.24155e-07 1.87836e-07 1.56695e-07 1.30126e-07 1.07574e-07 8.85256e-08 7.25183e-08 5.91338e-08 4.79984e-08 3.87807e-08 3.11887e-08 2.4967e-08 1.98938e-08 1.57778e-08 1.24551e-08 9.7863e-09 7.65339e-09 5.9573e-09 4.6153e-09 3.55878e-09 2.73114e-09 2.08601e-09 1.58563e-09 1.19939e-09 9.02671e-10 6.75744e-10 5.02889e-10 3.71639e-10 2.72134e-10 1.96589e-10 1.38842e-10 9.39836e-11 5.80327e-11 2.76705e-11 0 
0 3.91838e-11 8.2177e-11 1.3308e-10 1.96589e-10 2.78335e-10 3.85268e-10 5.26102e-10 7.1185e-10 9.56459e-10 1.27756e-09 1.69739e-09 2.24383e-09 2.95172e-09 3.8643e-09 5.03499e-09 6.52933e-09 8.42732e-09 1.08259e-08 1.38421e-08 1.76159e-08 2.2314e-08 2.81335e-08 3.53059e-08 4.41016e-08 5.48338e-08 6.78635e-08 8.3603e-08 1.02521e-07 1.25145e-07 1.52065e-07 1.83936e-07 2.21481e-07 2.65486e-07 3.16805e-07 3.76354e-07 4.45104e-07 5.24079e-07 6.14344e-07 7.16995e-07 8.33146e-07 9.6391e-07 1.11039e-06 1.27364e-06 1.45468e-06 1.65443e-06 1.87371e-06 2.11324e-06 2.37355e-06 2.65504e-06 2.95789e-06 3.28208e-06 3.62737e-06 3.9933e-06 4.37913e-06 4.7839e-06 5.20641e-06 5.64522e-06 6.09866e-06 6.56486e-06 7.04176e-06 7.52716e-06 8.01872e-06 8.51402e-06 9.01057e-06 9.50587e-06 9.99743e-06 1.04828e-05 1.09597e-05 1.14259e-05 1.18794e-05 1.23182e-05 1.27407e-05 1.31455e-05 1.35313e-05 1.38972e-05 1.42425e-05 1.45667e-05 1.48696e-05 1.5151e-05 1.54114e-05 1.56509e-05 1.58702e-05 1.60699e-05 1.6251e-05 1.64142e-05 1.65607e-05 1.66914e-05 1.68076e-05 1.69103e-05 1.70005e-05 1.70795e-05 1.71482e-05 1.72078e-05 1.72591e-05 1.73031e-05 1.73407e-05 1.73725e-05 1.73995e-05 1.74221e-05 1.7441e-05 1.74567e-05 1.74698e-05 1.74805e-05 1.74893e-05 1.74965e-05 1.75023e-05 1.7507e-05 1.75108e-05 1.75138e-05 1.75162e-05 1.75181e-05 1.75196e-05 1.75207e-05 1.75216e-05 1.75224e-05 1.75229e-05 1.75233e-05 1.75236e-05 1.75239e-05 1.75241e-05 1.75242e-05 1.75243e-05 1.75244e-05 1.75244e-05 1.75245e-05 1.75245e-05 1.75245e-05 1.75245e-05 1.75245e-05 1.75245e-05 1.75244e-05 1.75244e-05 1.75243e-05 1.75242e-05 1.75241e-05 1.75239e-05 1.75236e-05 1.75233e-05 1.75229e-05 1.75224e-05 1.75216e-05 1.75207e-05 1.75196e-05 1.75181e-05 1.75162e-05 1.75138e-05 1.75108e-05 1.7507e-05 1.75023e-05 1.74965e-05 1.74893e-05 1.74805e-05 1.74698e-05 1.74567e-05 1.7441e-05 1.74221e-05 1.73995e-05 1.73725e-05 1.73407e-05 1.73031e-05 1.72591e-05 1.72078e-05 1.71482e-05 1.70795e-05 1.70005e-05 1.69103e-05 1.68076e-05 1.66914e-05 1.65607e-05 1.64142e-05 1.6251e-05 1.60699e-05 1.58702e-05 1.56509e-05 1.54114e-05 1.5151e-05 1.48696e-05 1.45667e-05 1.42425e-05 1.38972e-05 1.35313e-05 1.31455e-05 1.27407e-05 1.23182e-05 1.18794e-05 1.14259e-05 1.09597e-05 1.04828e-05 9.99743e-06 9.50587e-06 9.01057e-06 8.51402e-06 8.01872e-06 7.52716e-06 7.04176e-06 6.56486e-06 6.09866e-06 5.64522e-06 5.20641e-06 4.7839e-06 4.37913e-06 3.9933e-06 3.62737e-06 3.28208e-06 2.95789e-06 2.65504e-06 2.37355e-06 2.11324e-06 1.87371e-06 1.65443e-06 1.45468e-06 1.27364e-06 1.11039e-06 9.6391e-07 8.33146e-07 7.16995e-07 6.14344e-07 5.24079e-07 4.45104e-07 3.76354e-07 3.16805e-07 2.65486e-07 2.21481e-07 1.83936e-07 1.52065e-07 1.25145e-07 1.02521e-07 8.3603e-08 6.78635e-08 5.48338e-08 4.41016e-08 3.53059e-08 2.81335e-08 2.2314e-08 1.76159e-08 1.38421e-08 1.08259e-08 8.42732e-09 6.52933e-09 5.03499e-09 3.8643e-09 2.95172e-09 2.24383e-09 1.69739e-09 1.27756e-09 9.56459e-10 7.1185e-10 5.26102e-10 3.85268e-10 2.78335e-10 1.96589e-10 1.3308e-10 8.2177e-11 3.91838e-11 0 
0 5.42486e-11 1.13768e-10 1.8423e-10 2.72134e-10 3.85268e-10 5.33243e-10 7.28111e-10 9.85103e-10 1.3235e-09 1.76768e-09 2.34838e-09 3.10415e-09 4.08314e-09 5.34512e-09 6.9639e-09 9.03006e-09 1.16541e-08 1.49701e-08 1.91396e-08 2.4356e-08 3.08496e-08 3.88926e-08 4.88049e-08 6.09598e-08 7.579e-08 9.37937e-08 1.15541e-07 1.41677e-07 1.72933e-07 2.10121e-07 2.54148e-07 3.06009e-07 3.66791e-07 4.37673e-07 5.19916e-07 6.14864e-07 7.23929e-07 8.4858e-07 9.90331e-07 1.15072e-06 1.33128e-06 1.53352e-06 1.75893e-06 2.00888e-06 2.28466e-06 2.5874e-06 2.91807e-06 3.27744e-06 3.66602e-06 4.08409e-06 4.53161e-06 5.00825e-06 5.51336e-06 6.04594e-06 6.60466e-06 7.18786e-06 7.79354e-06 8.41941e-06 9.06289e-06 9.72114e-06 1.03911e-05 1.10696e-05 1.17532e-05 1.24386e-05 1.31222e-05 1.38007e-05 1.44707e-05 1.51289e-05 1.57724e-05 1.63983e-05 1.70039e-05 1.75871e-05 1.81459e-05 1.86784e-05 1.91835e-05 1.96602e-05 2.01077e-05 2.05258e-05 2.09144e-05 2.12737e-05 2.16044e-05 2.19071e-05 2.21829e-05 2.24329e-05 2.26583e-05 2.28605e-05 2.30411e-05 2.32015e-05 2.33432e-05 2.34679e-05 2.35769e-05 2.36719e-05 2.37541e-05 2.3825e-05 2.38858e-05 2.39377e-05 2.39817e-05 2.40189e-05 2.40501e-05 2.40763e-05 2.4098e-05 2.4116e-05 2.41308e-05 2.4143e-05 2.41529e-05 2.4161e-05 2.41674e-05 2.41727e-05 2.41768e-05 2.41801e-05 2.41828e-05 2.41848e-05 2.41865e-05 2.41877e-05 2.41887e-05 2.41894e-05 2.419e-05 2.41905e-05 2.41908e-05 2.41911e-05 2.41913e-05 2.41914e-05 2.41915e-05 2.41916e-05 2.41916e-05 2.41916e-05 2.41917e-05 2.41917e-05 2.41916e-05 2.41916e-05 2.41916e-05 2.41915e-05 2.41914e-05 2.41913e-05 2.41911e-05 2.41908e-05 2.41905e-05 2.419e-05 2.41894e-05 2.41887e-05 2.41877e-05 2.41865e-05 2.41848e-05 2.41828e-05 2.41801e-05 2.41768e-05 2.41727e-05 2.41674e-05 2.4161e-05 2.41529e-05 2.4143e-05 2.41308e-05 2.4116e-05 2.4098e-05 2.40763e-05 2.40501e-05 2.40189e-05 2.39817e-05 2.39377e-05 2.38858e-05 2.3825e-05 2.37541e-05 2.36719e-05 2.35769e-05 2.34679e-05 2.33432e-05 2.32015e-05 2.30411e-05 2.28605e-05 2.26583e-05 2.24329e-05 2.21829e-05 2.19071e-05 2.16044e-05 2.12737e-05 2.09144e-05 2.05258e-05 2.01077e-05 1.96602e-05 1.91835e-05 1.86784e-05 1.81459e-05 1.75871e-05 1.70039e-05 1.63983e-05 1.57724e-05 1.51289e-05 1.44707e-05 1.38007e-05 1.31222e-05 1.24386e-05 1.17532e-05 1.10696e-05 1.03911e-05 9.72114e-06 9.06289e-06 8.41941e-06 7.79354e-06 7.18786e-06 6.60466e-06 6.04594e-06 5.51336e-06 5.00825e-06 4.53161e-06 4.08409e-06 3.66602e-06 3.27744e-06 2.91807e-06 2.5874e-06 2.28466e-06 2.00888e-06 1.75893e-06 1.53352e-06 1.33128e-06 1.15072e-06 9.90331e-07 8.4858e-07 7.23929e-07 6.14864e-07 5.19916e-07 4.37673e-07 3.66791e-07 3.06009e-07 2.54148e-07 2.10121e-07 1.72933e-07 1.41677e-07 1.15541e-07 9.37937e-08 7.579e-08 6.09598e-08 4.88049e-08 3.88926e-08 3.08496e-08 2.4356e-08 1.91396e-08 1.49701e-08 1.16541e-08 9.03006e-09 6.9639e-09 5.34512e-09 4.08314e-09 3.10415e-09 2.34838e-09 1.76768e-09 1.3235e-09 9.85103e-10 7.28111e-10 5.33243e-10 3.85268e-10 2.72134e-10 1.8423e-10 1.13768e-10 5.42486e-11 0 
0 7.40948e-11 1.55384e-10 2.51609e-10 3.71639e-10 5.26102e-10 7.28111e-10 9.94111e-10 1.34488e-09 1.80671e-09 2.41285e-09 3.20523e-09 4.2364e-09 5.57202e-09 7.29358e-09 9.5017e-09 1.23199e-08 1.58987e-08 2.04209e-08 2.61067e-08 3.32195e-08 4.20733e-08 5.30389e-08 6.65522e-08 8.31216e-08 1.03337e-07 1.27876e-07 1.57516e-07 1.93137e-07 2.35731e-07 2.86409e-07 3.46401e-07 4.17065e-07 4.99881e-07 5.96452e-07 7.08498e-07 8.37846e-07 9.86419e-07 1.15622e-06 1.3493e-06 1.56776e-06 1.81369e-06 2.08914e-06 2.39613e-06 2.73654e-06 3.1121e-06 3.52438e-06 3.97468e-06 4.46404e-06 4.99317e-06 5.56244e-06 6.1718e-06 6.8208e-06 7.50855e-06 8.23369e-06 8.99441e-06 9.78845e-06 1.06131e-05 1.14652e-05 1.23413e-05 1.32375e-05 1.41496e-05 1.50733e-05 1.60041e-05 1.69372e-05 1.78679e-05 1.87916e-05 1.97038e-05 2.05999e-05 2.1476e-05 2.23281e-05 2.31528e-05 2.39468e-05 2.47075e-05 2.54327e-05 2.61204e-05 2.67694e-05 2.73788e-05 2.79481e-05 2.84772e-05 2.89666e-05 2.94169e-05 2.98291e-05 3.02047e-05 3.05451e-05 3.08521e-05 3.11275e-05 3.13735e-05 3.15919e-05 3.1785e-05 3.19548e-05 3.21034e-05 3.22327e-05 3.23448e-05 3.24414e-05 3.25242e-05 3.25948e-05 3.26548e-05 3.27055e-05 3.27481e-05 3.27837e-05 3.28134e-05 3.28379e-05 3.28581e-05 3.28747e-05 3.28882e-05 3.28992e-05 3.2908e-05 3.29151e-05 3.29208e-05 3.29253e-05 3.29289e-05 3.29317e-05 3.29339e-05 3.29357e-05 3.2937e-05 3.2938e-05 3.29388e-05 3.29394e-05 3.29399e-05 3.29402e-05 3.29405e-05 3.29407e-05 3.29408e-05 3.29409e-05 3.2941e-05 3.2941e-05 3.2941e-05 3.2941e-05 3.2941e-05 3.2941e-05 3.29409e-05 3.29408e-05 3.29407e-05 3.29405e-05 3.29402e-05 3.29399e-05 3.29394e-05 3.29388e-05 3.2938e-05 3.2937e-05 3.29357e-05 3.29339e-05 3.29317e-05 3.29289e-05 3.29253e-05 3.29208e-05 3.29151e-05 3.2908e-05 3.28992e-05 3.28882e-05 3.28747e-05 3.28581e-05 3.28379e-05 3.28134e-05 3.27837e-05 3.27481e-05 3.27055e-05 3.26548e-05 3.25948e-05 3.25242e-05 3.24414e-05 3.23448e-05 3.22327e-05 3.21034e-05 3.19548e-05 3.1785e-05 3.15919e-05 3.13735e-05 3.11275e-05 3.08521e-05 3.05451e-05 3.02047e-05 2.98291e-05 2.94169e-05 2.89666e-05 2.84772e-05 2.79481e-05 2.73788e-05 2.67694e-05 2.61204e-05 2.54327e-05 2.47075e-05 2.39468e-05 2.31528e-05 2.23281e-05 2.1476e-05 2.05999e-05 1.97038e-05 1.87916e-05 1.78679e-05 1.69372e-05 1.60041e-05 1.50733e-05 1.41496e-05 1.32375e-05 1.23413e-05 1.14652e-05 1.06131e-05 9.78845e-06 8.99441e-06 8.23369e-06 7.50855e-06 6.8208e-06 6.1718e-06 5.56244e-06 4.99317e-06 4.46404e-06 3.97468e-06 3.52438e-06 3.1121e-06 2.73654e-06 2.39613e-06 2.08914e-06 1.81369e-06 1.56776e-06 1.3493e-06 1.15622e-06 9.86419e-07 8.37846e-07 7.08498e-07 5.96452e-07 4.99881e-07 4.17065e-07 3.46401e-07 2.86409e-07 2.35731e-07 1.93137e-07 1.57516e-07 1.27876e-07 1.03337e-07 8.31216e-08 6.65522e-08 5.30389e-08 4.20733e-08 3.32195e-08 2.61067e-08 2.04209e-08 1.58987e-08 1.23199e-08 9.5017e-09 7.29358e-09 5.57202e-09 4.2364e-09 3.20523e-09 2.41285e-09 1.80671e-09 1.34488e-09 9.94111e-10 7.28111e-10 5.26102e-10 3.71639e-10 2.51609e-10 1.55384e-10 7.40948e-11 0 
0 1.00277e-10 2.10283e-10 3.4049e-10 5.02889e-10 7.1185e-10 9.85103e-10 1.34488e-09 1.81925e-09 2.44376e-09 3.26336e-09 4.33466e-09 5.7287e-09 7.53417e-09 9.86116e-09 1.28456e-08 1.66542e-08 2.14905e-08 2.76011e-08 3.52833e-08 4.48932e-08 5.68542e-08 7.16671e-08 8.99203e-08 1.123e-07 1.39603e-07 1.72743e-07 2.12769e-07 2.6087e-07 3.18383e-07 3.86807e-07 4.67803e-07 5.63202e-07 6.75001e-07 8.05362e-07 9.56605e-07 1.1312e-06 1.33173e-06 1.5609e-06 1.82148e-06 2.1163e-06 2.44817e-06 2.81989e-06 3.23413e-06 3.69346e-06 4.20021e-06 4.75648e-06 5.36404e-06 6.02428e-06 6.73816e-06 7.50617e-06 8.32825e-06 9.2038e-06 1.01316e-05 1.11098e-05 1.2136e-05 1.32072e-05 1.43196e-05 1.5469e-05 1.66508e-05 1.78597e-05 1.90901e-05 2.03361e-05 2.15916e-05 2.28502e-05 2.41057e-05 2.53517e-05 2.65821e-05 2.7791e-05 2.89728e-05 3.01223e-05 3.12347e-05 3.23058e-05 3.3332e-05 3.43102e-05 3.5238e-05 3.61136e-05 3.69357e-05 3.77037e-05 3.84176e-05 3.90778e-05 3.96854e-05 4.02416e-05 4.07484e-05 4.12077e-05 4.1622e-05 4.19937e-05 4.23255e-05 4.26204e-05 4.2881e-05 4.31101e-05 4.33107e-05 4.34852e-05 4.36365e-05 4.37668e-05 4.38786e-05 4.3974e-05 4.4055e-05 4.41235e-05 4.4181e-05 4.42291e-05 4.42691e-05 4.43022e-05 4.43295e-05 4.43519e-05 4.43702e-05 4.4385e-05 4.4397e-05 4.44066e-05 4.44142e-05 4.44204e-05 4.44252e-05 4.4429e-05 4.4432e-05 4.44343e-05 4.44361e-05 4.44375e-05 4.44386e-05 4.44394e-05 4.444e-05 4.44405e-05 4.44408e-05 4.44411e-05 4.44413e-05 4.44414e-05 4.44415e-05 4.44416e-05 4.44416e-05 4.44416e-05 4.44416e-05 4.44415e-05 4.44414e-05 4.44413e-05 4.44411e-05 4.44408e-05 4.44405e-05 4.444e-05 4.44394e-05 4.44386e-05 4.44375e-05 4.44361e-05 4.44343e-05 4.4432e-05 4.4429e-05 4.44252e-05 4.44204e-05 4.44142e-05 4.44066e-05 4.4397e-05 4.4385e-05 4.43702e-05 4.43519e-05 4.43295e-05 4.43022e-05 4.42691e-05 4.42291e-05 4.4181e-05 4.41235e-05 4.4055e-05 4.3974e-05 4.38786e-05 4.37668e-05 4.36365e-05 4.34852e-05 4.33107e-05 4.31101e-05 4.2881e-05 4.26204e-05 4.23255e-05 4.19937e-05 4.1622e-05 4.12077e-05 4.07484e-05 4.02416e-05 3.96854e-05 3.90778e-05 3.84176e-05 3.77037e-05 3.69357e-05 3.61136e-05 3.5238e-05 3.43102e-05 3.3332e-05 3.23058e-05 3.12347e-05 3.01223e-05 2.89728e-05 2.7791e-05 2.65821e-05 2.53517e-05 2.41057e-05 2.28502e-05 2.15916e-05 2.03361e-05 1.90901e-05 1.78597e-05 1.66508e-05 1.5469e-05 1.43196e-05 1.32072e-05 1.2136e-05 1.11098e-05 1.01316e-05 9.2038e-06 8.32825e-06 7.50617e-06 6.73816e-06 6.02428e-06 5.36404e-06 4.75648e-06 4.20021e-06 3.69346e-06 3.23413e-06 2.81989e-06 2.44817e-06 2.1163e-06 1.82148e-06 1.5609e-06 1.33173e-06 1.1312e-06 9.56605e-07 8.05362e-07 6.75001e-07 5.63202e-07 4.67803e-07 3.86807e-07 3.18383e-07 2.6087e-07 2.12769e-07 1.72743e-07 1.39603e-07 1.123e-07 8.99203e-08 7.16671e-08 5.68542e-08 4.48932e-08 3.52833e-08 2.76011e-08 2.14905e-08 1.66542e-08 1.28456e-08 9.86116e-09 7.53417e-09 5.7287e-09 4.33466e-09 3.26336e-09 2.44376e-09 1.81925e-09 1.34488e-09 9.85103e-10 7.1185e-10 5.02889e-10 3.4049e-10 2.10283e-10 1.00277e-10 0 
0 1.34764e-10 2.82595e-10 4.57554e-10 6.75744e-10 9.56459e-10 1.3235e-09 1.80671e-09 2.44376e-09 3.28238e-09 4.38284e-09 5.82114e-09 7.69258e-09 1.01161e-08 1.32395e-08 1.72449e-08 2.23561e-08 2.88459e-08 3.70452e-08 4.73524e-08 6.0245e-08 7.62907e-08 9.61609e-08 1.20644e-07 1.50661e-07 1.87277e-07 2.31721e-07 2.85395e-07 3.49892e-07 4.27006e-07 5.18744e-07 6.27333e-07 7.55224e-07 9.05092e-07 1.07984e-06 1.28256e-06 1.51657e-06 1.78533e-06 2.09247e-06 2.44169e-06 2.83677e-06 3.2815e-06 3.77959e-06 4.33466e-06 4.95011e-06 5.62908e-06 6.37438e-06 7.18837e-06 8.07292e-06 9.02931e-06 1.00582e-05 1.11595e-05 1.23324e-05 1.35753e-05 1.48857e-05 1.62603e-05 1.76951e-05 1.91852e-05 2.07249e-05 2.23079e-05 2.39272e-05 2.55753e-05 2.72442e-05 2.89259e-05 3.06118e-05 3.22934e-05 3.39624e-05 3.56105e-05 3.72298e-05 3.88128e-05 4.03525e-05 4.18425e-05 4.32774e-05 4.4652e-05 4.59624e-05 4.72053e-05 4.83782e-05 4.94795e-05 5.05084e-05 5.14648e-05 5.23493e-05 5.31633e-05 5.39086e-05 5.45876e-05 5.5203e-05 5.57581e-05 5.62562e-05 5.67009e-05 5.7096e-05 5.74452e-05 5.77524e-05 5.80211e-05 5.82551e-05 5.84579e-05 5.86326e-05 5.87825e-05 5.89104e-05 5.90189e-05 5.91107e-05 5.91878e-05 5.92523e-05 5.9306e-05 5.93504e-05 5.9387e-05 5.9417e-05 5.94415e-05 5.94614e-05 5.94774e-05 5.94903e-05 5.95006e-05 5.95088e-05 5.95153e-05 5.95204e-05 5.95244e-05 5.95276e-05 5.953e-05 5.95319e-05 5.95333e-05 5.95344e-05 5.95352e-05 5.95359e-05 5.95363e-05 5.95367e-05 5.95369e-05 5.95371e-05 5.95372e-05 5.95373e-05 5.95373e-05 5.95373e-05 5.95373e-05 5.95372e-05 5.95371e-05 5.95369e-05 5.95367e-05 5.95363e-05 5.95359e-05 5.95352e-05 5.95344e-05 5.95333e-05 5.95319e-05 5.953e-05 5.95276e-05 5.95244e-05 5.95204e-05 5.95153e-05 5.95088e-05 5.95006e-05 5.94903e-05 5.94774e-05 5.94614e-05 5.94415e-05 5.9417e-05 5.9387e-05 5.93504e-05 5.9306e-05 5.92523e-05 5.91878e-05 5.91107e-05 5.90189e-05 5.89104e-05 5.87825e-05 5.86326e-05 5.84579e-05 5.82551e-05 5.80211e-05 5.77524e-05 5.74452e-05 5.7096e-05 5.67009e-05 5.62562e-05 5.57581e-05 5.5203e-05 5.45876e-05 5.39086e-05 5.31633e-05 5.23493e-05 5.14648e-05 5.05084e-05 4.94795e-05 4.83782e-05 4.72053e-05 4.59624e-05 4.4652e-05 4.32774e-05 4.18425e-05 4.03525e-05 3.88128e-05 3.72298e-05 3.56105e-05 3.39624e-05 3.22934e-05 3.06118e-05 2.89259e-05 2.72442e-05 2.55753e-05 2.39272e-05 2.23079e-05 2.07249e-05 1.91852e-05 1.76951e-05 1.62603e-05 1.48857e-05 1.35753e-05 1.23324e-05 1.11595e-05 1.00582e-05 9.02931e-06 8.07292e-06 7.18837e-06 6.37438e-06 5.62908e-06 4.95011e-06 4.33466e-06 3.77959e-06 3.2815e-06 2.83677e-06 2.44169e-06 2.09247e-06 1.78533e-06 1.51657e-06 1.28256e-06 1.07984e-06 9.05092e-07 7.55224e-07 6.27333e-07 5.18744e-07 4.27006e-07 3.49892e-07 2.85395e-07 2.31721e-07 1.87277e-07 1.50661e-07 1.20644e-07 9.61609e-08 7.62907e-08 6.0245e-08 4.73524e-08 3.70452e-08 2.88459e-08 2.23561e-08 1.72449e-08 1.32395e-08 1.01161e-08 7.69258e-09 5.82114e-09 4.38284e-09 3.28238e-09 2.44376e-09 1.80671e-09 1.3235e-09 9.56459e-10 6.75744e-10 4.57554e-10 2.82595e-10 1.34764e-10 0 