<?xml version="1.0"?>
<VTKFile type="ImageData" version="0.1" byte_order="LittleEndian">
  <ImageData WholeExtent="0 255 0 255 0 0" Origin="0 0 0" Spacing="1 1 1">
  <Piece Extent="0 255 0 255 0 0">
    <PointData>
      <DataArray type="Float32" Name="scalar_data" format="ascii" >0 0 0 0 0 0 0 0 0 0 0 0 0 0 0 0 0 0 0 0 0 0 0 0 0 0 0 0 0 0 0 0 0 0 0 0 0 0 0 0 0 0 0 0 0 0 0 0 0 0 0 0 0 0 0 0 0 0 0 0 0 0 0 0 0 0 0 0 0 0 0 0 0 0 0 0 0 0 0 0 0 0 0 0 0 0 0 0 0 0 0 0 0 0 0 0 0 0 0 0 0 0 0 0 0 0 0 0 0 0 0 0 0 0 0 0 0 0 0 0 0 0 0 0 0 0 0 0 0 0 0 0 0 0 0 0 0 0 0 0 0 0 0 0 0 0 0 0 0 0 0 0 0 0 0 0 0 0 0 0 0 0 0 0 0 0 0 0 0 0 0 0 0 0 0 0 0 0 0 0 0 0 0 0 0 0 0 0 0 0 0 0 0 0 0 0 0 0 0 0 0 0 0 0 0 0 0 0 0 0 0 0 0 0 0 0 0 0 0 0 0 0 0 0 0 0 0 0 0 0 0 0 0 0 0 0 0 0 0 0 0 0 0 0 0 0 0 0 0 0 0 0 0 0 0 0 
0 1.19934e-18 2.79533e-18 5.30039e-18 9.48752e-18 1.65993e-17 2.86685e-17 4.90214e-17 8.30654e-17 1.39517e-16 2.32298e-16 3.83429e-16 6.27407e-16 1.01775e-15 1.63669e-15 2.60928e-15 4.1239e-15 6.46146e-15 1.00367e-14 1.54558e-14 2.35957e-14 3.57127e-14 5.35873e-14 7.97177e-14 1.17573e-13 1.71918e-13 2.49232e-13 3.58229e-13 5.10502e-13 7.2131e-13 1.01051e-12 1.40366e-12 1.93328e-12 2.64027e-12 3.57547e-12 4.8013e-12 6.39348e-12 8.44271e-12 1.10562e-11 1.4359e-11 1.84949e-11 2.36269e-11 2.99369e-11 3.76245e-11 4.69052e-11 5.80068e-11 7.11654e-11 8.66199e-11 1.04605e-10 1.25344e-10 1.4904e-10 1.75867e-10 2.05961e-10 2.39412e-10 2.76254e-10 3.16459e-10 3.59933e-10 4.06511e-10 4.55959e-10 5.07973e-10 5.62185e-10 6.1817e-10 6.75458e-10 7.33542e-10 7.91894e-10 8.49978e-10 9.07266e-10 9.63251e-10 1.01746e-09 1.06948e-09 1.11892e-09 1.1655e-09 1.20898e-09 1.24918e-09 1.28602e-09 1.31947e-09 1.34957e-09 1.3764e-09 1.40009e-09 1.42083e-09 1.43882e-09 1.45427e-09 1.46743e-09 1.47853e-09 1.48781e-09 1.4955e-09 1.50181e-09 1.50694e-09 1.51108e-09 1.51438e-09 1.51699e-09 1.51904e-09 1.52063e-09 1.52186e-09 1.5228e-09 1.5235e-09 1.52403e-09 1.52443e-09 1.52471e-09 1.52493e-09 1.52508e-09 1.52519e-09 1.52526e-09 1.52532e-09 1.52536e-09 1.52538e-09 1.5254e-09 1.52541e-09 1.52542e-09 1.52543e-09 1.52543e-09 1.52543e-09 1.52543e-09 1.52543e-09 1.52543e-09 1.52544e-09 1.52544e-09 1.52544e-09 1.52544e-09 1.52544e-09 1.52544e-09 1.52544e-09 1.52544e-09 1.52544e-09 1.52544e-09 1.52544e-09 1.52544e-09 1.52544e-09 1.52544e-09 1.52544e-09 1.52544e-09 1.52544e-09 1.52544e-09 1.52544e-09 1.52544e-09 1.52544e-09 1.52544e-09 1.52544e-09 1.52544e-09 1.52544e-09 1.52544e-09 1.52543e-09 1.52543e-09 1.52543e-09 1.52543e-09 1.52543e-09 1.52543e-09 1.52542e-09 1.52541e-09 1.5254e-09 1.52538e-09 1.52536e-09 1.52532e-09 1.52526e-09 1.52519e-09 1.52508e-09 1.52493e-09 1.52471e-09 1.52443e-09 1.52403e-09 1.5235e-09 1.5228e-09 1.52186e-09 1.52063e-09 1.51904e-09 1.51699e-09 1.51438e-09 1.51108e-09 1.50694e-09 1.50181e-09 1.4955e-09 1.48781e-09 1.47853e-09 1.46743e-09 1.45427e-09 1.43882e-09 1.42083e-09 1.40009e-09 1.3764e-09 1.34957e-09 1.31947e-09 1.28602e-09 1.24918e-09 1.20898e-09 1.1655e-09 1.11892e-09 1.06948e-09 1.01746e-09 9.63251e-10 9.07266e-10 8.49978e-10 7.91894e-10 7.33542e-10 6.75458e-10 6.1817e-10 5.62185e-10 5.07973e-10 4.55959e-10 4.06511e-10 3.59933e-10 3.16459e-10 2.76254e-10 2.39412e-10 2.05961e-10 1.75867e-10 1.4904e-10 1.25344e-10 1.04605e-10 8.66199e-11 7.11654e-11 5.80068e-11 4.69052e-11 3.76245e-11 2.99369e-11 2.36269e-11 1.84949e-11 1.4359e-11 1.10562e-11 8.44271e-12 6.39348e-12 4.8013e-12 3.57547e-12 2.64027e-12 1.93328e-12 1.40366e-12 1.01051e-12 7.2131e-13 5.10502e-13 3.58229e-13 2.49232e-13 1.71918e-13 1.17573e-13 7.97177e-14 5.35873e-14 3.57127e-14 2.35957e-14 1.54558e-14 1.00367e-14 6.46146e-15 4.1239e-15 2.60928e-15 1.63669e-15 1.01775e-15 6.27407e-16 3.83429e-16 2.32298e-16 1.39517e-16 8.30654e-17 4.90214e-17 2.86685e-17 1.65993e-17 9.48752e-18 5.30039e-18 2.79533e-18 1.19934e-18 0 
0 2.79533e-18 6.51394e-18 1.23482e-17 2.20963e-17 3.86471e-17 6.67259e-17 1.14061e-16 1.93212e-16 3.2442e-16 5.39999e-16 8.91051e-16 1.45761e-15 2.3638e-15 3.80024e-15 6.05685e-15 9.57011e-15 1.49908e-14 2.32795e-14 3.58397e-14 5.47017e-14 8.27724e-14 1.24172e-13 1.84679e-13 2.72315e-13 3.98099e-13 5.77007e-13 8.2918e-13 1.1814e-12 1.66893e-12 2.33763e-12 3.24651e-12 4.47066e-12 6.1045e-12 8.26535e-12 1.10973e-11 1.4775e-11 1.95077e-11 2.55427e-11 3.31683e-11 4.27162e-11 5.45621e-11 6.91252e-11 8.68658e-11 1.0828e-10 1.33893e-10 1.6425e-10 1.99899e-10 2.41381e-10 2.89212e-10 3.43858e-10 4.0572e-10 4.75112e-10 5.52238e-10 6.37177e-10 7.29866e-10 8.30086e-10 9.37459e-10 1.05144e-09 1.17134e-09 1.2963e-09 1.42534e-09 1.55738e-09 1.69126e-09 1.82576e-09 1.95963e-09 2.09168e-09 2.22072e-09 2.34568e-09 2.46557e-09 2.57956e-09 2.68693e-09 2.78715e-09 2.87984e-09 2.96478e-09 3.04191e-09 3.1113e-09 3.17316e-09 3.22781e-09 3.27564e-09 3.31712e-09 3.35277e-09 3.38312e-09 3.40874e-09 3.43015e-09 3.44789e-09 3.46245e-09 3.4743e-09 3.48385e-09 3.49147e-09 3.49751e-09 3.50224e-09 3.50592e-09 3.50875e-09 3.51091e-09 3.51255e-09 3.51377e-09 3.51468e-09 3.51535e-09 3.51584e-09 3.51619e-09 3.51644e-09 3.51662e-09 3.51674e-09 3.51683e-09 3.51689e-09 3.51693e-09 3.51696e-09 3.51698e-09 3.51699e-09 3.517e-09 3.51701e-09 3.51701e-09 3.51701e-09 3.51701e-09 3.51702e-09 3.51702e-09 3.51702e-09 3.51702e-09 3.51702e-09 3.51702e-09 3.51702e-09 3.51702e-09 3.51702e-09 3.51702e-09 3.51702e-09 3.51702e-09 3.51702e-09 3.51702e-09 3.51702e-09 3.51702e-09 3.51702e-09 3.51702e-09 3.51702e-09 3.51702e-09 3.51702e-09 3.51702e-09 3.51702e-09 3.51702e-09 3.51702e-09 3.51702e-09 3.51701e-09 3.51701e-09 3.51701e-09 3.51701e-09 3.517e-09 3.51699e-09 3.51698e-09 3.51696e-09 3.51693e-09 3.51689e-09 3.51683e-09 3.51674e-09 3.51662e-09 3.51644e-09 3.51619e-09 3.51584e-09 3.51535e-09 3.51468e-09 3.51377e-09 3.51255e-09 3.51091e-09 3.50875e-09 3.50592e-09 3.50224e-09 3.49751e-09 3.49147e-09 3.48385e-09 3.4743e-09 3.46245e-09 3.44789e-09 3.43015e-09 3.40874e-09 3.38312e-09 3.35277e-09 3.31712e-09 3.27564e-09 3.22781e-09 3.17316e-09 3.1113e-09 3.04191e-09 2.96478e-09 2.87984e-09 2.78715e-09 2.68693e-09 2.57956e-09 2.46557e-09 2.34568e-09 2.22072e-09 2.09168e-09 1.95963e-09 1.82576e-09 1.69126e-09 1.55738e-09 1.42534e-09 1.2963e-09 1.17134e-09 1.05144e-09 9.37459e-10 8.30086e-10 7.29866e-10 6.37177e-10 5.52238e-10 4.75112e-10 4.0572e-10 3.43858e-10 2.89212e-10 2.41381e-10 1.99899e-10 1.6425e-10 1.33893e-10 1.0828e-10 8.68658e-11 6.91252e-11 5.45621e-11 4.27162e-11 3.31683e-11 2.55427e-11 1.95077e-11 1.4775e-11 1.10973e-11 8.26535e-12 6.1045e-12 4.47066e-12 3.24651e-12 2.33763e-12 1.66893e-12 1.1814e-12 8.2918e-13 5.77007e-13 3.98099e-13 2.72315e-13 1.84679e-13 1.24172e-13 8.27724e-14 5.47017e-14 3.58397e-14 2.32795e-14 1.49908e-14 9.57011e-15 6.05685e-15 3.80024e-15 2.3638e-15 1.45761e-15 8.91051e-16 5.39999e-16 3.2442e-16 1.93212e-16 1.14061e-16 6.67259e-17 3.86471e-17 2.20963e-17 1.23482e-17 6.51394e-18 2.79533e-18 0 
0 5.30039e-18 1.23482e-17 2.33994e-17 4.18536e-17 7.31701e-17 1.26273e-16 2.15752e-16 3.65307e-16 6.13111e-16 1.02008e-15 1.68252e-15 2.75118e-15 4.45974e-15 7.16699e-15 1.14183e-14 1.80345e-14 2.8239e-14 4.38366e-14 6.74639e-14 1.02933e-13 1.55701e-13 2.33497e-13 3.47162e-13 5.11738e-13 7.47881e-13 1.08366e-12 1.55679e-12 2.21745e-12 3.13165e-12 4.38522e-12 6.0886e-12 8.38227e-12 1.14428e-11 1.54895e-11 2.07918e-11 2.76761e-11 3.65333e-11 4.78254e-11 6.20908e-11 7.99489e-11 1.02101e-10 1.29329e-10 1.62493e-10 2.02518e-10 2.50384e-10 3.07104e-10 3.73706e-10 4.51196e-10 5.40533e-10 6.42588e-10 7.58107e-10 8.87674e-10 1.03167e-09 1.19024e-09 1.36326e-09 1.55034e-09 1.75075e-09 1.96348e-09 2.18724e-09 2.42045e-09 2.66127e-09 2.90768e-09 3.15752e-09 3.4085e-09 3.65834e-09 3.90475e-09 4.14557e-09 4.37878e-09 4.60254e-09 4.81528e-09 5.01569e-09 5.20276e-09 5.37578e-09 5.53435e-09 5.67835e-09 5.80791e-09 5.92343e-09 6.02549e-09 6.11482e-09 6.19231e-09 6.25892e-09 6.31564e-09 6.3635e-09 6.40353e-09 6.43669e-09 6.46392e-09 6.48607e-09 6.50393e-09 6.5182e-09 6.52949e-09 6.53834e-09 6.54523e-09 6.55053e-09 6.55458e-09 6.55764e-09 6.55993e-09 6.56164e-09 6.56289e-09 6.5638e-09 6.56446e-09 6.56494e-09 6.56527e-09 6.56551e-09 6.56567e-09 6.56579e-09 6.56587e-09 6.56592e-09 6.56595e-09 6.56598e-09 6.56599e-09 6.566e-09 6.56601e-09 6.56601e-09 6.56602e-09 6.56602e-09 6.56602e-09 6.56602e-09 6.56602e-09 6.56602e-09 6.56602e-09 6.56602e-09 6.56602e-09 6.56602e-09 6.56602e-09 6.56602e-09 6.56602e-09 6.56602e-09 6.56602e-09 6.56602e-09 6.56602e-09 6.56602e-09 6.56602e-09 6.56602e-09 6.56602e-09 6.56602e-09 6.56602e-09 6.56602e-09 6.56602e-09 6.56602e-09 6.56602e-09 6.56602e-09 6.56601e-09 6.56601e-09 6.566e-09 6.56599e-09 6.56598e-09 6.56595e-09 6.56592e-09 6.56587e-09 6.56579e-09 6.56567e-09 6.56551e-09 6.56527e-09 6.56494e-09 6.56446e-09 6.5638e-09 6.56289e-09 6.56164e-09 6.55993e-09 6.55764e-09 6.55458e-09 6.55053e-09 6.54523e-09 6.53834e-09 6.52949e-09 6.5182e-09 6.50393e-09 6.48607e-09 6.46392e-09 6.43669e-09 6.40353e-09 6.3635e-09 6.31564e-09 6.25892e-09 6.19231e-09 6.11482e-09 6.02549e-09 5.92343e-09 5.80791e-09 5.67835e-09 5.53435e-09 5.37578e-09 5.20276e-09 5.01569e-09 4.81528e-09 4.60254e-09 4.37878e-09 4.14557e-09 3.90475e-09 3.65834e-09 3.4085e-09 3.15752e-09 2.90768e-09 2.66127e-09 2.42045e-09 2.18724e-09 1.96348e-09 1.75075e-09 1.55034e-09 1.36326e-09 1.19024e-09 1.03167e-09 8.87674e-10 7.58107e-10 6.42588e-10 5.40533e-10 4.51196e-10 3.73706e-10 3.07104e-10 2.50384e-10 2.02518e-10 1.62493e-10 1.29329e-10 1.02101e-10 7.99489e-11 6.20908e-11 4.78254e-11 3.65333e-11 2.76761e-11 2.07918e-11 1.54895e-11 1.14428e-11 8.38227e-12 6.0886e-12 4.38522e-12 3.13165e-12 2.21745e-12 1.55679e-12 1.08366e-12 7.47881e-13 5.11738e-13 3.47162e-13 2.33497e-13 1.55701e-13 1.02933e-13 6.74639e-14 4.38366e-14 2.8239e-14 1.80345e-14 1.14183e-14 7.16699e-15 4.45974e-15 2.75118e-15 1.68252e-15 1.02008e-15 6.13111e-16 3.65307e-16 2.15752e-16 1.26273e-16 7.31701e-17 4.18536e-17 2.33994e-17 1.23482e-17 5.30039e-18 0 
0 9.48752e-18 2.20963e-17 4.18536e-17 7.48247e-17 1.30743e-16 2.25509e-16 3.85105e-16 6.51711e-16 1.09324e-15 1.81799e-15 2.99711e-15 4.89834e-15 7.93659e-15 1.27485e-14 2.03014e-14 3.20505e-14 5.01637e-14 7.7838e-14 1.19741e-13 1.8262e-13 2.76128e-13 4.13936e-13 6.15203e-13 9.06508e-13 1.32434e-12 1.91824e-12 2.75482e-12 3.92258e-12 5.53794e-12 7.75227e-12 1.07602e-11 1.48093e-11 2.02106e-11 2.73505e-11 3.67029e-11 4.88427e-11 6.44575e-11 8.436e-11 1.09497e-10 1.40958e-10 1.79975e-10 2.27923e-10 2.86312e-10 3.56767e-10 4.4101e-10 5.40819e-10 6.57997e-10 7.94312e-10 9.51444e-10 1.13092e-09 1.33405e-09 1.56186e-09 1.81501e-09 2.09375e-09 2.39788e-09 2.72667e-09 3.07888e-09 3.45274e-09 3.84594e-09 4.25572e-09 4.67888e-09 5.11185e-09 5.55083e-09 5.99182e-09 6.43079e-09 6.86377e-09 7.28692e-09 7.6967e-09 8.08991e-09 8.46376e-09 8.81597e-09 9.14477e-09 9.44889e-09 9.72764e-09 9.98079e-09 1.02086e-08 1.04117e-08 1.05912e-08 1.07483e-08 1.08846e-08 1.10018e-08 1.11016e-08 1.11859e-08 1.12563e-08 1.13147e-08 1.13627e-08 1.14017e-08 1.14331e-08 1.14583e-08 1.14782e-08 1.14938e-08 1.15059e-08 1.15153e-08 1.15224e-08 1.15278e-08 1.15319e-08 1.15349e-08 1.15371e-08 1.15387e-08 1.15399e-08 1.15407e-08 1.15413e-08 1.15417e-08 1.1542e-08 1.15422e-08 1.15424e-08 1.15425e-08 1.15425e-08 1.15426e-08 1.15426e-08 1.15426e-08 1.15426e-08 1.15426e-08 1.15426e-08 1.15426e-08 1.15426e-08 1.15426e-08 1.15426e-08 1.15426e-08 1.15426e-08 1.15426e-08 1.15426e-08 1.15426e-08 1.15426e-08 1.15426e-08 1.15426e-08 1.15426e-08 1.15426e-08 1.15426e-08 1.15426e-08 1.15426e-08 1.15426e-08 1.15426e-08 1.15426e-08 1.15426e-08 1.15426e-08 1.15426e-08 1.15426e-08 1.15426e-08 1.15426e-08 1.15426e-08 1.15426e-08 1.15426e-08 1.15426e-08 1.15426e-08 1.15426e-08 1.15425e-08 1.15425e-08 1.15424e-08 1.15422e-08 1.1542e-08 1.15417e-08 1.15413e-08 1.15407e-08 1.15399e-08 1.15387e-08 1.15371e-08 1.15349e-08 1.15319e-08 1.15278e-08 1.15224e-08 1.15153e-08 1.15059e-08 1.14938e-08 1.14782e-08 1.14583e-08 1.14331e-08 1.14017e-08 1.13627e-08 1.13147e-08 1.12563e-08 1.11859e-08 1.11016e-08 1.10018e-08 1.08846e-08 1.07483e-08 1.05912e-08 1.04117e-08 1.02086e-08 9.98079e-09 9.72764e-09 9.44889e-09 9.14477e-09 8.81597e-09 8.46376e-09 8.08991e-09 7.6967e-09 7.28692e-09 6.86377e-09 6.43079e-09 5.99182e-09 5.55083e-09 5.11185e-09 4.67888e-09 4.25572e-09 3.84594e-09 3.45274e-09 3.07888e-09 2.72667e-09 2.39788e-09 2.09375e-09 1.81501e-09 1.56186e-09 1.33405e-09 1.13092e-09 9.51444e-10 7.94312e-10 6.57997e-10 5.40819e-10 4.4101e-10 3.56767e-10 2.86312e-10 2.27923e-10 1.79975e-10 1.40958e-10 1.09497e-10 8.436e-11 6.44575e-11 4.88427e-11 3.67029e-11 2.73505e-11 2.02106e-11 1.48093e-11 1.07602e-11 7.75227e-12 5.53794e-12 3.92258e-12 2.75482e-12 1.91824e-12 1.32434e-12 9.06508e-13 6.15203e-13 4.13936e-13 2.76128e-13 1.8262e-13 1.19741e-13 7.7838e-14 5.01637e-14 3.20505e-14 2.03014e-14 1.27485e-14 7.93659e-15 4.89834e-15 2.99711e-15 1.81799e-15 1.09324e-15 6.51711e-16 3.85105e-16 2.25509e-16 1.30743e-16 7.48247e-17 4.18536e-17 2.20963e-17 9.48752e-18 0 
0 1.65993e-17 3.86471e-17 7.31701e-17 1.30743e-16 2.28323e-16 3.93598e-16 6.71776e-16 1.13622e-15 1.90496e-15 3.16616e-15 5.21694e-15 8.52198e-15 1.38009e-14 2.21574e-14 3.52675e-14 5.56517e-14 8.70628e-14 1.35032e-13 2.07634e-13 3.1653e-13 4.78402e-13 7.1686e-13 1.06499e-12 1.56865e-12 2.2908e-12 3.31687e-12 4.76167e-12 6.77773e-12 9.56556e-12 1.33858e-11 1.85736e-11 2.55548e-11 3.48645e-11 4.71671e-11 6.32776e-11 8.41836e-11 1.11067e-10 1.45323e-10 1.88579e-10 2.42703e-10 3.09811e-10 3.92263e-10 4.92647e-10 6.13752e-10 7.58528e-10 9.30027e-10 1.13133e-09 1.36548e-09 1.63534e-09 1.94354e-09 2.29231e-09 2.6834e-09 3.11794e-09 3.59637e-09 4.11832e-09 4.68255e-09 5.28693e-09 5.92841e-09 6.60305e-09 7.3061e-09 8.03207e-09 8.77487e-09 9.52796e-09 1.02845e-08 1.10376e-08 1.17804e-08 1.25064e-08 1.32094e-08 1.38841e-08 1.45255e-08 1.51299e-08 1.56941e-08 1.62161e-08 1.66945e-08 1.71291e-08 1.75202e-08 1.78689e-08 1.81771e-08 1.8447e-08 1.86811e-08 1.88824e-08 1.90539e-08 1.91987e-08 1.93198e-08 1.94202e-08 1.95026e-08 1.95698e-08 1.96239e-08 1.96671e-08 1.97014e-08 1.97283e-08 1.97492e-08 1.97653e-08 1.97776e-08 1.97869e-08 1.97939e-08 1.97991e-08 1.98029e-08 1.98057e-08 1.98077e-08 1.98091e-08 1.98102e-08 1.98109e-08 1.98114e-08 1.98117e-08 1.9812e-08 1.98121e-08 1.98123e-08 1.98123e-08 1.98124e-08 1.98124e-08 1.98124e-08 1.98124e-08 1.98124e-08 1.98125e-08 1.98125e-08 1.98125e-08 1.98125e-08 1.98125e-08 1.98125e-08 1.98125e-08 1.98125e-08 1.98125e-08 1.98125e-08 1.98125e-08 1.98125e-08 1.98125e-08 1.98125e-08 1.98125e-08 1.98125e-08 1.98125e-08 1.98125e-08 1.98125e-08 1.98125e-08 1.98125e-08 1.98125e-08 1.98125e-08 1.98125e-08 1.98125e-08 1.98125e-08 1.98124e-08 1.98124e-08 1.98124e-08 1.98124e-08 1.98124e-08 1.98123e-08 1.98123e-08 1.98121e-08 1.9812e-08 1.98117e-08 1.98114e-08 1.98109e-08 1.98102e-08 1.98091e-08 1.98077e-08 1.98057e-08 1.98029e-08 1.97991e-08 1.97939e-08 1.97869e-08 1.97776e-08 1.97653e-08 1.97492e-08 1.97283e-08 1.97014e-08 1.96671e-08 1.96239e-08 1.95698e-08 1.95026e-08 1.94202e-08 1.93198e-08 1.91987e-08 1.90539e-08 1.88824e-08 1.86811e-08 1.8447e-08 1.81771e-08 1.78689e-08 1.75202e-08 1.71291e-08 1.66945e-08 1.62161e-08 1.56941e-08 1.51299e-08 1.45255e-08 1.38841e-08 1.32094e-08 1.25064e-08 1.17804e-08 1.10376e-08 1.02845e-08 9.52796e-09 8.77487e-09 8.03207e-09 7.3061e-09 6.60305e-09 5.92841e-09 5.28693e-09 4.68255e-09 4.11832e-09 3.59637e-09 3.11794e-09 2.6834e-09 2.29231e-09 1.94354e-09 1.63534e-09 1.36548e-09 1.13133e-09 9.30027e-10 7.58528e-10 6.13752e-10 4.92647e-10 3.92263e-10 3.09811e-10 2.42703e-10 1.88579e-10 1.45323e-10 1.11067e-10 8.41836e-11 6.32776e-11 4.71671e-11 3.48645e-11 2.55548e-11 1.85736e-11 1.33858e-11 9.56556e-12 6.77773e-12 4.76167e-12 3.31687e-12 2.2908e-12 1.56865e-12 1.06499e-12 7.1686e-13 4.78402e-13 3.1653e-13 2.07634e-13 1.35032e-13 8.70628e-14 5.56517e-14 3.52675e-14 2.21574e-14 1.38009e-14 8.52198e-15 5.21694e-15 3.16616e-15 1.90496e-15 1.13622e-15 6.71776e-16 3.93598e-16 2.28323e-16 1.30743e-16 7.31701e-17 3.86471e-17 1.65993e-17 0 
0 2.86685e-17 6.67259e-17 1.26273e-16 2.25509e-16 3.93598e-16 6.78124e-16 1.15674e-15 1.95537e-15 3.27654e-15 5.44288e-15 8.9636e-15 1.46346e-14 2.36879e-14 3.8012e-14 6.04734e-14 9.53807e-14 1.49146e-13 2.31215e-13 3.5537e-13 5.41511e-13 8.18085e-13 1.22534e-12 1.81966e-12 2.67916e-12 3.91101e-12 5.66065e-12 8.12336e-12 1.15586e-11 1.63071e-11 2.2812e-11 3.16426e-11 4.3522e-11 5.93586e-11 8.02801e-11 1.07669e-10 1.43201e-10 1.8888e-10 2.47071e-10 3.2053e-10 4.12425e-10 5.26338e-10 6.66265e-10 8.36588e-10 1.04203e-09 1.28757e-09 1.57839e-09 1.91969e-09 2.31661e-09 2.774e-09 3.29628e-09 3.88725e-09 4.54984e-09 5.28597e-09 6.09636e-09 6.98038e-09 7.93593e-09 8.9594e-09 1.00456e-08 1.11879e-08 1.23783e-08 1.36074e-08 1.4865e-08 1.614e-08 1.74209e-08 1.86958e-08 1.99534e-08 2.11826e-08 2.23729e-08 2.35153e-08 2.46015e-08 2.56249e-08 2.65805e-08 2.74645e-08 2.82749e-08 2.9011e-08 2.96736e-08 3.02646e-08 3.07869e-08 3.12443e-08 3.16412e-08 3.19825e-08 3.22733e-08 3.25188e-08 3.27243e-08 3.28946e-08 3.30345e-08 3.31484e-08 3.32403e-08 3.33138e-08 3.3372e-08 3.34177e-08 3.34532e-08 3.34806e-08 3.35015e-08 3.35173e-08 3.35292e-08 3.35381e-08 3.35446e-08 3.35493e-08 3.35527e-08 3.35552e-08 3.3557e-08 3.35582e-08 3.35591e-08 3.35596e-08 3.356e-08 3.35603e-08 3.35605e-08 3.35606e-08 3.35607e-08 3.35608e-08 3.35608e-08 3.35608e-08 3.35608e-08 3.35609e-08 3.35609e-08 3.35609e-08 3.35609e-08 3.35609e-08 3.35609e-08 3.35609e-08 3.35609e-08 3.35609e-08 3.35609e-08 3.35609e-08 3.35609e-08 3.35609e-08 3.35609e-08 3.35609e-08 3.35609e-08 3.35609e-08 3.35609e-08 3.35609e-08 3.35609e-08 3.35609e-08 3.35609e-08 3.35609e-08 3.35609e-08 3.35609e-08 3.35609e-08 3.35608e-08 3.35608e-08 3.35608e-08 3.35608e-08 3.35607e-08 3.35606e-08 3.35605e-08 3.35603e-08 3.356e-08 3.35596e-08 3.35591e-08 3.35582e-08 3.3557e-08 3.35552e-08 3.35527e-08 3.35493e-08 3.35446e-08 3.35381e-08 3.35292e-08 3.35173e-08 3.35015e-08 3.34806e-08 3.34532e-08 3.34177e-08 3.3372e-08 3.33138e-08 3.32403e-08 3.31484e-08 3.30345e-08 3.28946e-08 3.27243e-08 3.25188e-08 3.22733e-08 3.19825e-08 3.16412e-08 3.12443e-08 3.07869e-08 3.02646e-08 2.96736e-08 2.9011e-08 2.82749e-08 2.74645e-08 2.65805e-08 2.56249e-08 2.46015e-08 2.35153e-08 2.23729e-08 2.11826e-08 1.99534e-08 1.86958e-08 1.74209e-08 1.614e-08 1.4865e-08 1.36074e-08 1.23783e-08 1.11879e-08 1.00456e-08 8.9594e-09 7.93593e-09 6.98038e-09 6.09636e-09 5.28597e-09 4.54984e-09 3.88725e-09 3.29628e-09 2.774e-09 2.31661e-09 1.91969e-09 1.57839e-09 1.28757e-09 1.04203e-09 8.36588e-10 6.66265e-10 5.26338e-10 4.12425e-10 3.2053e-10 2.47071e-10 1.8888e-10 1.43201e-10 1.07669e-10 8.02801e-11 5.93586e-11 4.3522e-11 3.16426e-11 2.2812e-11 1.63071e-11 1.15586e-11 8.12336e-12 5.66065e-12 3.91101e-12 2.67916e-12 1.81966e-12 1.22534e-12 8.18085e-13 5.41511e-13 3.5537e-13 2.31215e-13 1.49146e-13 9.53807e-14 6.04734e-14 3.8012e-14 2.36879e-14 1.46346e-14 8.9636e-15 5.44288e-15 3.27654e-15 1.95537e-15 1.15674e-15 6.78124e-16 3.93598e-16 2.25509e-16 1.26273e-16 6.67259e-17 2.86685e-17 0 
0 4.90214e-17 1.14061e-16 2.15752e-16 3.85105e-16 6.71776e-16 1.15674e-15 1.97205e-15 3.33174e-15 5.57981e-15 9.26403e-15 1.52484e-14 2.48828e-14 4.02555e-14 6.45659e-14 1.02668e-13 1.61854e-13 2.52972e-13 3.91994e-13 6.02212e-13 9.17246e-13 1.38513e-12 2.07381e-12 3.07839e-12 4.53064e-12 6.61122e-12 9.5652e-12 1.37216e-11 1.95171e-11 2.75257e-11 3.84926e-11 5.33754e-11 7.33903e-11 1.00064e-10 1.35292e-10 1.81397e-10 2.41192e-10 3.18041e-10 4.15915e-10 5.3944e-10 6.93925e-10 8.85383e-10 1.12051e-09 1.40665e-09 1.75172e-09 2.16407e-09 2.65236e-09 3.22532e-09 3.89153e-09 4.65913e-09 5.53551e-09 6.527e-09 7.63851e-09 8.87326e-09 1.02324e-08 1.17149e-08 1.33173e-08 1.50334e-08 1.68546e-08 1.87698e-08 2.07654e-08 2.28259e-08 2.49341e-08 2.70715e-08 2.92186e-08 3.13559e-08 3.34641e-08 3.55247e-08 3.75203e-08 3.94355e-08 4.12567e-08 4.29728e-08 4.45751e-08 4.60576e-08 4.74168e-08 4.86515e-08 4.97631e-08 5.07545e-08 5.16309e-08 5.23985e-08 5.30647e-08 5.36377e-08 5.4126e-08 5.45383e-08 5.48834e-08 5.51695e-08 5.54047e-08 5.55961e-08 5.57506e-08 5.58741e-08 5.5972e-08 5.60489e-08 5.61087e-08 5.61548e-08 5.619e-08 5.62167e-08 5.62367e-08 5.62516e-08 5.62625e-08 5.62705e-08 5.62763e-08 5.62805e-08 5.62834e-08 5.62855e-08 5.6287e-08 5.6288e-08 5.62887e-08 5.62891e-08 5.62894e-08 5.62897e-08 5.62898e-08 5.62899e-08 5.62899e-08 5.629e-08 5.629e-08 5.629e-08 5.629e-08 5.629e-08 5.629e-08 5.62901e-08 5.62901e-08 5.62901e-08 5.62901e-08 5.62901e-08 5.62901e-08 5.62901e-08 5.62901e-08 5.62901e-08 5.62901e-08 5.62901e-08 5.62901e-08 5.62901e-08 5.62901e-08 5.62901e-08 5.62901e-08 5.62901e-08 5.62901e-08 5.629e-08 5.629e-08 5.629e-08 5.629e-08 5.629e-08 5.629e-08 5.62899e-08 5.62899e-08 5.62898e-08 5.62897e-08 5.62894e-08 5.62891e-08 5.62887e-08 5.6288e-08 5.6287e-08 5.62855e-08 5.62834e-08 5.62805e-08 5.62763e-08 5.62705e-08 5.62625e-08 5.62516e-08 5.62367e-08 5.62167e-08 5.619e-08 5.61548e-08 5.61087e-08 5.60489e-08 5.5972e-08 5.58741e-08 5.57506e-08 5.55961e-08 5.54047e-08 5.51695e-08 5.48834e-08 5.45383e-08 5.4126e-08 5.36377e-08 5.30647e-08 5.23985e-08 5.16309e-08 5.07545e-08 4.97631e-08 4.86515e-08 4.74168e-08 4.60576e-08 4.45751e-08 4.29728e-08 4.12567e-08 3.94355e-08 3.75203e-08 3.55247e-08 3.34641e-08 3.13559e-08 2.92186e-08 2.70715e-08 2.49341e-08 2.28259e-08 2.07654e-08 1.87698e-08 1.68546e-08 1.50334e-08 1.33173e-08 1.17149e-08 1.02324e-08 8.87326e-09 7.63851e-09 6.527e-09 5.53551e-09 4.65913e-09 3.89153e-09 3.22532e-09 2.65236e-09 2.16407e-09 1.75172e-09 1.40665e-09 1.12051e-09 8.85383e-10 6.93925e-10 5.3944e-10 4.15915e-10 3.18041e-10 2.41192e-10 1.81397e-10 1.35292e-10 1.00064e-10 7.33903e-11 5.33754e-11 3.84926e-11 2.75257e-11 1.95171e-11 1.37216e-11 9.5652e-12 6.61122e-12 4.53064e-12 3.07839e-12 2.07381e-12 1.38513e-12 9.17246e-13 6.02212e-13 3.91994e-13 2.52972e-13 1.61854e-13 1.02668e-13 6.45659e-14 4.02555e-14 2.48828e-14 1.52484e-14 9.26403e-15 5.57981e-15 3.33174e-15 1.97205e-15 1.15674e-15 6.71776e-16 3.85105e-16 2.15752e-16 1.14061e-16 4.90214e-17 0 
0 8.30653e-17 1.93212e-16 3.65307e-16 6.51711e-16 1.13622e-15 1.95537e-15 3.33174e-15 5.62584e-15 9.41675e-15 1.56261e-14 2.5707e-14 4.1928e-14 6.77973e-14 1.08687e-13 1.72744e-13 2.72199e-13 4.25239e-13 6.58634e-13 1.0114e-12 1.53983e-12 2.32431e-12 3.4785e-12 5.16146e-12 7.59341e-12 1.10762e-11 1.60193e-11 2.29717e-11 3.26627e-11 4.60494e-11 6.4375e-11 8.9236e-11 1.22659e-10 1.67189e-10 2.25981e-10 3.02904e-10 4.02639e-10 5.30787e-10 6.93952e-10 8.99827e-10 1.15724e-09 1.47619e-09 1.8678e-09 2.34428e-09 2.91876e-09 3.60514e-09 4.41776e-09 5.37114e-09 6.47949e-09 7.75633e-09 9.21392e-09 1.08627e-08 1.27109e-08 1.47638e-08 1.70233e-08 1.94876e-08 2.21509e-08 2.50031e-08 2.80297e-08 3.12123e-08 3.45285e-08 3.79525e-08 4.14556e-08 4.5007e-08 4.85746e-08 5.2126e-08 5.56291e-08 5.9053e-08 6.23692e-08 6.55519e-08 6.85785e-08 7.14307e-08 7.4094e-08 7.65583e-08 7.88178e-08 8.08706e-08 8.27188e-08 8.43677e-08 8.58252e-08 8.71021e-08 8.82104e-08 8.91638e-08 8.99764e-08 9.06628e-08 9.12373e-08 9.17138e-08 9.21054e-08 9.24243e-08 9.26817e-08 9.28876e-08 9.30508e-08 9.31789e-08 9.32787e-08 9.33556e-08 9.34144e-08 9.34589e-08 9.34923e-08 9.35172e-08 9.35355e-08 9.35489e-08 9.35586e-08 9.35656e-08 9.35705e-08 9.3574e-08 9.35764e-08 9.35781e-08 9.35793e-08 9.358e-08 9.35806e-08 9.35809e-08 9.35811e-08 9.35813e-08 9.35814e-08 9.35815e-08 9.35815e-08 9.35815e-08 9.35815e-08 9.35816e-08 9.35816e-08 9.35816e-08 9.35816e-08 9.35816e-08 9.35816e-08 9.35816e-08 9.35816e-08 9.35816e-08 9.35816e-08 9.35816e-08 9.35816e-08 9.35816e-08 9.35816e-08 9.35816e-08 9.35816e-08 9.35816e-08 9.35816e-08 9.35816e-08 9.35816e-08 9.35816e-08 9.35816e-08 9.35815e-08 9.35815e-08 9.35815e-08 9.35815e-08 9.35814e-08 9.35813e-08 9.35811e-08 9.35809e-08 9.35806e-08 9.358e-08 9.35793e-08 9.35781e-08 9.35764e-08 9.3574e-08 9.35705e-08 9.35656e-08 9.35586e-08 9.35489e-08 9.35355e-08 9.35172e-08 9.34923e-08 9.34589e-08 9.34144e-08 9.33556e-08 9.32787e-08 9.31789e-08 9.30508e-08 9.28876e-08 9.26817e-08 9.24243e-08 9.21054e-08 9.17138e-08 9.12373e-08 9.06628e-08 8.99764e-08 8.91638e-08 8.82104e-08 8.71021e-08 8.58252e-08 8.43677e-08 8.27188e-08 8.08706e-08 7.88178e-08 7.65583e-08 7.4094e-08 7.14307e-08 6.85785e-08 6.55519e-08 6.23692e-08 5.9053e-08 5.56291e-08 5.2126e-08 4.85746e-08 4.5007e-08 4.14556e-08 3.79525e-08 3.45285e-08 3.12123e-08 2.80297e-08 2.50031e-08 2.21509e-08 1.94876e-08 1.70233e-08 1.47638e-08 1.27109e-08 1.08627e-08 9.21392e-09 7.75633e-09 6.47949e-09 5.37114e-09 4.41776e-09 3.60514e-09 2.91876e-09 2.34428e-09 1.8678e-09 1.47619e-09 1.15724e-09 8.99827e-10 6.93952e-10 5.30787e-10 4.02639e-10 3.02904e-10 2.25981e-10 1.67189e-10 1.22659e-10 8.9236e-11 6.4375e-11 4.60494e-11 3.26627e-11 2.29717e-11 1.60193e-11 1.10762e-11 7.59341e-12 5.16146e-12 3.4785e-12 2.32431e-12 1.53983e-12 1.0114e-12 6.58634e-13 4.25239e-13 2.72199e-13 1.72744e-13 1.08687e-13 6.77973e-14 4.1928e-14 2.5707e-14 1.56261e-14 9.41675e-15 5.62584e-15 3.33174e-15 1.95537e-15 1.13622e-15 6.51711e-16 3.65307e-16 1.93212e-16 8.30653e-17 0 
0 1.39517e-16 3.2442e-16 6.13111e-16 1.09324e-15 1.90496e-15 3.27654e-15 5.57981e-15 9.41675e-15 1.57538e-14 2.61282e-14 4.29622e-14 7.00361e-14 1.13192e-13 1.81373e-13 2.88132e-13 4.5381e-13 7.08637e-13 1.09709e-12 1.68396e-12 2.56269e-12 3.86667e-12 5.78442e-12 8.57961e-12 1.26173e-11 1.83974e-11 2.65978e-11 3.81278e-11 5.41937e-11 7.63789e-11 1.06739e-10 1.47913e-10 2.03251e-10 2.76954e-10 3.74236e-10 5.01481e-10 6.66419e-10 8.78287e-10 1.14798e-09 1.48819e-09 1.91346e-09 2.44028e-09 3.08698e-09 3.87366e-09 4.82196e-09 5.95476e-09 7.29567e-09 8.86857e-09 1.06969e-08 1.28028e-08 1.52065e-08 1.79252e-08 2.09723e-08 2.43564e-08 2.80808e-08 3.21425e-08 3.65317e-08 4.12318e-08 4.62192e-08 5.14634e-08 5.69273e-08 6.25687e-08 6.83402e-08 7.41914e-08 8.00692e-08 8.59203e-08 9.16919e-08 9.73332e-08 1.02797e-07 1.08041e-07 1.13029e-07 1.17729e-07 1.22118e-07 1.2618e-07 1.29904e-07 1.33288e-07 1.36335e-07 1.39054e-07 1.41458e-07 1.43564e-07 1.45392e-07 1.46965e-07 1.48306e-07 1.49439e-07 1.50387e-07 1.51174e-07 1.5182e-07 1.52347e-07 1.52772e-07 1.53113e-07 1.53382e-07 1.53594e-07 1.53759e-07 1.53886e-07 1.53984e-07 1.54057e-07 1.54113e-07 1.54154e-07 1.54184e-07 1.54206e-07 1.54222e-07 1.54234e-07 1.54242e-07 1.54248e-07 1.54252e-07 1.54255e-07 1.54257e-07 1.54258e-07 1.54259e-07 1.54259e-07 1.5426e-07 1.5426e-07 1.5426e-07 1.5426e-07 1.5426e-07 1.54261e-07 1.54261e-07 1.54261e-07 1.54261e-07 1.54261e-07 1.54261e-07 1.54261e-07 1.54261e-07 1.54261e-07 1.54261e-07 1.54261e-07 1.54261e-07 1.54261e-07 1.54261e-07 1.54261e-07 1.54261e-07 1.54261e-07 1.54261e-07 1.54261e-07 1.54261e-07 1.54261e-07 1.54261e-07 1.54261e-07 1.54261e-07 1.54261e-07 1.54261e-07 1.5426e-07 1.5426e-07 1.5426e-07 1.5426e-07 1.5426e-07 1.54259e-07 1.54259e-07 1.54258e-07 1.54257e-07 1.54255e-07 1.54252e-07 1.54248e-07 1.54242e-07 1.54234e-07 1.54222e-07 1.54206e-07 1.54184e-07 1.54154e-07 1.54113e-07 1.54057e-07 1.53984e-07 1.53886e-07 1.53759e-07 1.53594e-07 1.53382e-07 1.53113e-07 1.52772e-07 1.52347e-07 1.5182e-07 1.51174e-07 1.50387e-07 1.49439e-07 1.48306e-07 1.46965e-07 1.45392e-07 1.43564e-07 1.41458e-07 1.39054e-07 1.36335e-07 1.33288e-07 1.29904e-07 1.2618e-07 1.22118e-07 1.17729e-07 1.13029e-07 1.08041e-07 1.02797e-07 9.73332e-08 9.16919e-08 8.59203e-08 8.00692e-08 7.41914e-08 6.83402e-08 6.25687e-08 5.69273e-08 5.14634e-08 4.62192e-08 4.12318e-08 3.65317e-08 3.21425e-08 2.80808e-08 2.43564e-08 2.09723e-08 1.79252e-08 1.52065e-08 1.28028e-08 1.06969e-08 8.86857e-09 7.29567e-09 5.95476e-09 4.82196e-09 3.87366e-09 3.08698e-09 2.44028e-09 1.91346e-09 1.48819e-09 1.14798e-09 8.78287e-10 6.66419e-10 5.01481e-10 3.74236e-10 2.76954e-10 2.03251e-10 1.47913e-10 1.06739e-10 7.63789e-11 5.41937e-11 3.81278e-11 2.65978e-11 1.83974e-11 1.26173e-11 8.57961e-12 5.78442e-12 3.86667e-12 2.56269e-12 1.68396e-12 1.09709e-12 7.08637e-13 4.5381e-13 2.88132e-13 1.81373e-13 1.13192e-13 7.00361e-14 4.29622e-14 2.61282e-14 1.57538e-14 9.41675e-15 5.57981e-15 3.27654e-15 1.90496e-15 1.09324e-15 6.13111e-16 3.2442e-16 1.39517e-16 0 