<?xml version="1.0"?>
<VTKFile type="ImageData" version="0.1" byte_order="LittleEndian">
  <ImageData WholeExtent="0 255 0 255 0 0" Origin="0 0 0" Spacing="1 1 1">
  <Piece Extent="0 255 0 255 0 0">
    <PointData>
      <DataArray type="Float32" Name="scalar_data" format="ascii" >0 0 0 0 0 0 0 0 0 0 0 0 0 0 0 0 0 0 0 0 0 0 0 0 0 0 0 0 0 0 0 0 0 0 0 0 0 0 0 0 0 0 0 0 0 0 0 0 0 0 0 0 0 0 0 0 0 0 0 0 0 0 0 0 0 0 0 0 0 0 0 0 0 0 0 0 0 0 0 0 0 0 0 0 0 0 0 0 0 0 0 0 0 0 0 0 0 0 0 0 0 0 0 0 0 0 0 0 0 0 0 0 0 0 0 0 0 0 0 0 0 0 0 0 0 0 0 0 0 0 0 0 0 0 0 0 0 0 0 0 0 0 0 0 0 0 0 0 0 0 0 0 0 0 0 0 0 0 0 0 0 0 0 0 0 0 0 0 0 0 0 0 0 0 0 0 0 0 0 0 0 0 0 0 0 0 0 0 0 0 0 0 0 0 0 0 0 0 0 0 0 0 0 0 0 0 0 0 0 0 0 0 0 0 0 0 0 0 0 0 0 0 0 0 0 0 0 0 0 0 0 0 0 0 0 0 0 0 0 0 0 0 0 0 0 0 0 0 0 0 0 0 0 0 0 0 
0 7.92764e-17 1.78552e-16 3.22195e-16 5.44119e-16 8.94655e-16 1.4503e-15 2.32783e-15 3.70499e-15 5.85047e-15 9.16732e-15 1.42552e-14 2.19984e-14 3.36903e-14 5.12055e-14 7.72376e-14 1.15623e-13 1.71776e-13 2.53275e-13 3.70623e-13 5.38255e-13 7.75821e-13 1.10983e-12 1.57573e-12 2.22043e-12 3.1055e-12 4.31089e-12 5.93951e-12 8.1225e-12 1.10253e-11 1.48546e-11 1.98659e-11 2.63719e-11 3.47512e-11 4.54571e-11 5.90268e-11 7.60892e-11 9.73722e-11 1.23708e-10 1.56036e-10 1.95403e-10 2.4296e-10 2.99949e-10 3.67697e-10 4.47591e-10 5.41056e-10 6.4952e-10 7.74386e-10 9.16982e-10 1.07852e-09 1.26006e-09 1.46243e-09 1.68623e-09 1.93173e-09 2.19889e-09 2.48728e-09 2.7961e-09 3.12415e-09 3.46981e-09 3.83113e-09 4.20579e-09 4.59115e-09 4.98435e-09 5.38233e-09 5.78191e-09 6.17989e-09 6.57308e-09 6.95845e-09 7.3331e-09 7.69442e-09 8.04009e-09 8.36813e-09 8.67695e-09 8.96534e-09 9.2325e-09 9.478e-09 9.7018e-09 9.90418e-09 1.00857e-08 1.02473e-08 1.03898e-08 1.05147e-08 1.06232e-08 1.07166e-08 1.07965e-08 1.08643e-08 1.09213e-08 1.09688e-08 1.10082e-08 1.10405e-08 1.10669e-08 1.10881e-08 1.11052e-08 1.11188e-08 1.11295e-08 1.11379e-08 1.11444e-08 1.11494e-08 1.11532e-08 1.11561e-08 1.11583e-08 1.11599e-08 1.11611e-08 1.1162e-08 1.11627e-08 1.11631e-08 1.11635e-08 1.11637e-08 1.11639e-08 1.1164e-08 1.11641e-08 1.11641e-08 1.11642e-08 1.11642e-08 1.11642e-08 1.11642e-08 1.11642e-08 1.11642e-08 1.11642e-08 1.11642e-08 1.11642e-08 1.11642e-08 1.11642e-08 1.11642e-08 1.11642e-08 1.11642e-08 1.11642e-08 1.11642e-08 1.11642e-08 1.11642e-08 1.11642e-08 1.11642e-08 1.11642e-08 1.11642e-08 1.11642e-08 1.11642e-08 1.11642e-08 1.11642e-08 1.11642e-08 1.11642e-08 1.11642e-08 1.11642e-08 1.11642e-08 1.11642e-08 1.11641e-08 1.11641e-08 1.1164e-08 1.11639e-08 1.11637e-08 1.11635e-08 1.11631e-08 1.11627e-08 1.1162e-08 1.11611e-08 1.11599e-08 1.11583e-08 1.11561e-08 1.11532e-08 1.11494e-08 1.11444e-08 1.11379e-08 1.11295e-08 1.11188e-08 1.11052e-08 1.10881e-08 1.10669e-08 1.10405e-08 1.10082e-08 1.09688e-08 1.09213e-08 1.08643e-08 1.07965e-08 1.07166e-08 1.06232e-08 1.05147e-08 1.03898e-08 1.02473e-08 1.00857e-08 9.90418e-09 9.7018e-09 9.478e-09 9.2325e-09 8.96534e-09 8.67695e-09 8.36813e-09 8.04009e-09 7.69442e-09 7.3331e-09 6.95845e-09 6.57308e-09 6.17989e-09 5.78191e-09 5.38233e-09 4.98435e-09 4.59115e-09 4.20579e-09 3.83113e-09 3.46981e-09 3.12415e-09 2.7961e-09 2.48728e-09 2.19889e-09 1.93173e-09 1.68623e-09 1.46243e-09 1.26006e-09 1.07852e-09 9.16982e-10 7.74386e-10 6.4952e-10 5.41056e-10 4.47591e-10 3.67697e-10 2.99949e-10 2.4296e-10 1.95403e-10 1.56036e-10 1.23708e-10 9.73722e-11 7.60892e-11 5.90268e-11 4.54571e-11 3.47512e-11 2.63719e-11 1.98659e-11 1.48546e-11 1.10253e-11 8.1225e-12 5.93951e-12 4.31089e-12 3.1055e-12 2.22043e-12 1.57573e-12 1.10983e-12 7.75821e-13 5.38255e-13 3.70623e-13 2.53275e-13 1.71776e-13 1.15623e-13 7.72376e-14 5.12055e-14 3.36903e-14 2.19984e-14 1.42552e-14 9.16732e-15 5.85047e-15 3.70499e-15 2.32783e-15 1.4503e-15 8.94655e-16 5.44119e-16 3.22195e-16 1.78552e-16 7.92764e-17 0 
0 1.78552e-16 4.02105e-16 7.25489e-16 1.22498e-15 2.01376e-15 3.26381e-15 5.23764e-15 8.33464e-15 1.31585e-14 2.06148e-14 3.205e-14 4.94503e-14 7.57193e-14 1.15065e-13 1.73533e-13 2.59731e-13 3.8581e-13 5.68765e-13 8.32157e-13 1.20836e-12 1.74142e-12 2.49079e-12 3.5359e-12 4.98191e-12 6.96675e-12 9.66961e-12 1.3321e-11 1.82147e-11 2.47213e-11 3.33035e-11 4.45336e-11 5.91117e-11 7.78851e-11 1.01869e-10 1.32265e-10 1.70481e-10 2.18146e-10 2.77122e-10 3.49511e-10 4.37655e-10 5.44124e-10 6.71704e-10 8.23357e-10 1.00219e-09 1.21138e-09 1.45413e-09 1.73356e-09 2.05266e-09 2.41414e-09 2.82034e-09 3.27314e-09 3.77385e-09 4.32311e-09 4.9208e-09 5.56597e-09 6.25681e-09 6.99064e-09 7.76389e-09 8.57213e-09 9.41018e-09 1.02722e-08 1.11517e-08 1.20419e-08 1.29357e-08 1.38259e-08 1.47054e-08 1.55674e-08 1.64055e-08 1.72137e-08 1.7987e-08 1.87208e-08 1.94116e-08 2.00568e-08 2.06545e-08 2.12037e-08 2.17045e-08 2.21573e-08 2.25635e-08 2.29249e-08 2.3244e-08 2.35235e-08 2.37662e-08 2.39754e-08 2.41542e-08 2.43059e-08 2.44335e-08 2.45399e-08 2.46281e-08 2.47005e-08 2.47595e-08 2.48071e-08 2.48453e-08 2.48757e-08 2.48997e-08 2.49185e-08 2.49331e-08 2.49443e-08 2.49529e-08 2.49594e-08 2.49643e-08 2.49679e-08 2.49706e-08 2.49726e-08 2.49741e-08 2.49751e-08 2.49759e-08 2.49764e-08 2.49768e-08 2.4977e-08 2.49772e-08 2.49773e-08 2.49774e-08 2.49775e-08 2.49775e-08 2.49776e-08 2.49776e-08 2.49776e-08 2.49776e-08 2.49776e-08 2.49776e-08 2.49776e-08 2.49776e-08 2.49776e-08 2.49776e-08 2.49776e-08 2.49776e-08 2.49776e-08 2.49776e-08 2.49776e-08 2.49776e-08 2.49776e-08 2.49776e-08 2.49776e-08 2.49776e-08 2.49776e-08 2.49776e-08 2.49776e-08 2.49776e-08 2.49776e-08 2.49776e-08 2.49775e-08 2.49775e-08 2.49774e-08 2.49773e-08 2.49772e-08 2.4977e-08 2.49768e-08 2.49764e-08 2.49759e-08 2.49751e-08 2.49741e-08 2.49726e-08 2.49706e-08 2.49679e-08 2.49643e-08 2.49594e-08 2.49529e-08 2.49443e-08 2.49331e-08 2.49185e-08 2.48997e-08 2.48757e-08 2.48453e-08 2.48071e-08 2.47595e-08 2.47005e-08 2.46281e-08 2.45399e-08 2.44335e-08 2.43059e-08 2.41542e-08 2.39754e-08 2.37662e-08 2.35235e-08 2.3244e-08 2.29249e-08 2.25635e-08 2.21573e-08 2.17045e-08 2.12037e-08 2.06545e-08 2.00568e-08 1.94116e-08 1.87208e-08 1.7987e-08 1.72137e-08 1.64055e-08 1.55674e-08 1.47054e-08 1.38259e-08 1.29357e-08 1.20419e-08 1.11517e-08 1.02722e-08 9.41018e-09 8.57213e-09 7.76389e-09 6.99064e-09 6.25681e-09 5.56597e-09 4.9208e-09 4.32311e-09 3.77385e-09 3.27314e-09 2.82034e-09 2.41414e-09 2.05266e-09 1.73356e-09 1.45413e-09 1.21138e-09 1.00219e-09 8.23357e-10 6.71704e-10 5.44124e-10 4.37655e-10 3.49511e-10 2.77122e-10 2.18146e-10 1.70481e-10 1.32265e-10 1.01869e-10 7.78851e-11 5.91117e-11 4.45336e-11 3.33035e-11 2.47213e-11 1.82147e-11 1.3321e-11 9.66961e-12 6.96675e-12 4.98191e-12 3.5359e-12 2.49079e-12 1.74142e-12 1.20836e-12 8.32157e-13 5.68765e-13 3.8581e-13 2.59731e-13 1.73533e-13 1.15065e-13 7.57193e-14 4.94503e-14 3.205e-14 2.06148e-14 1.31585e-14 8.33464e-15 5.23764e-15 3.26381e-15 2.01376e-15 1.22498e-15 7.25489e-16 4.02105e-16 1.78552e-16 0 
0 3.22195e-16 7.25489e-16 1.30867e-15 2.2091e-15 3.63056e-15 5.88255e-15 9.43738e-15 1.50134e-14 2.36962e-14 3.71133e-14 5.7685e-14 8.89793e-14 1.36211e-13 2.06937e-13 3.1201e-13 4.6688e-13 6.93348e-13 1.0219e-12 1.4948e-12 2.17008e-12 3.12672e-12 4.47126e-12 6.34603e-12 8.93943e-12 1.24985e-11 1.73441e-11 2.38891e-11 3.26592e-11 4.43176e-11 5.96925e-11 7.98077e-11 1.05915e-10 1.39531e-10 1.8247e-10 2.36882e-10 3.05282e-10 3.90581e-10 4.96109e-10 6.2562e-10 7.83298e-10 9.73737e-10 1.20191e-09 1.47311e-09 1.79287e-09 2.16689e-09 2.60086e-09 3.10038e-09 3.67076e-09 4.31683e-09 5.04278e-09 5.85196e-09 6.74671e-09 7.72815e-09 8.79607e-09 9.94877e-09 1.1183e-08 1.2494e-08 1.38754e-08 1.53193e-08 1.68164e-08 1.83562e-08 1.99273e-08 2.15175e-08 2.31141e-08 2.47043e-08 2.62754e-08 2.78152e-08 2.93123e-08 3.07561e-08 3.21375e-08 3.34485e-08 3.46828e-08 3.58355e-08 3.69034e-08 3.78848e-08 3.87796e-08 3.95888e-08 4.03147e-08 4.09608e-08 4.15312e-08 4.20307e-08 4.24647e-08 4.28387e-08 4.31584e-08 4.34296e-08 4.36578e-08 4.38483e-08 4.40059e-08 4.41354e-08 4.4241e-08 4.43263e-08 4.43947e-08 4.44491e-08 4.4492e-08 4.45256e-08 4.45517e-08 4.45719e-08 4.45872e-08 4.45989e-08 4.46077e-08 4.46142e-08 4.4619e-08 4.46226e-08 4.46252e-08 4.46271e-08 4.46284e-08 4.46294e-08 4.46301e-08 4.46305e-08 4.46309e-08 4.46311e-08 4.46312e-08 4.46313e-08 4.46314e-08 4.46315e-08 4.46315e-08 4.46315e-08 4.46315e-08 4.46315e-08 4.46315e-08 4.46316e-08 4.46316e-08 4.46316e-08 4.46316e-08 4.46316e-08 4.46316e-08 4.46316e-08 4.46316e-08 4.46316e-08 4.46316e-08 4.46316e-08 4.46316e-08 4.46316e-08 4.46316e-08 4.46315e-08 4.46315e-08 4.46315e-08 4.46315e-08 4.46315e-08 4.46315e-08 4.46314e-08 4.46313e-08 4.46312e-08 4.46311e-08 4.46309e-08 4.46305e-08 4.46301e-08 4.46294e-08 4.46284e-08 4.46271e-08 4.46252e-08 4.46226e-08 4.4619e-08 4.46142e-08 4.46077e-08 4.45989e-08 4.45872e-08 4.45719e-08 4.45517e-08 4.45256e-08 4.4492e-08 4.44491e-08 4.43947e-08 4.43263e-08 4.4241e-08 4.41354e-08 4.40059e-08 4.38483e-08 4.36578e-08 4.34296e-08 4.31584e-08 4.28387e-08 4.24647e-08 4.20307e-08 4.15312e-08 4.09608e-08 4.03147e-08 3.95888e-08 3.87796e-08 3.78848e-08 3.69034e-08 3.58355e-08 3.46828e-08 3.34485e-08 3.21375e-08 3.07561e-08 2.93123e-08 2.78152e-08 2.62754e-08 2.47043e-08 2.31141e-08 2.15175e-08 1.99273e-08 1.83562e-08 1.68164e-08 1.53193e-08 1.38754e-08 1.2494e-08 1.1183e-08 9.94877e-09 8.79607e-09 7.72815e-09 6.74671e-09 5.85196e-09 5.04278e-09 4.31683e-09 3.67076e-09 3.10038e-09 2.60086e-09 2.16689e-09 1.79287e-09 1.47311e-09 1.20191e-09 9.73737e-10 7.83298e-10 6.2562e-10 4.96109e-10 3.90581e-10 3.05282e-10 2.36882e-10 1.8247e-10 1.39531e-10 1.05915e-10 7.98077e-11 5.96925e-11 4.43176e-11 3.26592e-11 2.38891e-11 1.73441e-11 1.24985e-11 8.93943e-12 6.34603e-12 4.47126e-12 3.12672e-12 2.17008e-12 1.4948e-12 1.0219e-12 6.93348e-13 4.6688e-13 3.1201e-13 2.06937e-13 1.36211e-13 8.89793e-14 5.7685e-14 3.71133e-14 2.36962e-14 1.50134e-14 9.43738e-15 5.88255e-15 3.63056e-15 2.2091e-15 1.30867e-15 7.25489e-16 3.22195e-16 0 
0 5.44119e-16 1.22498e-15 2.2091e-15 3.72793e-15 6.12466e-15 9.92033e-15 1.59098e-14 2.53014e-14 3.99208e-14 6.25041e-14 9.71184e-14 1.49758e-13 2.29182e-13 3.48076e-13 5.24656e-13 7.84846e-13 1.16522e-12 1.71689e-12 2.51072e-12 3.64396e-12 5.24898e-12 7.50422e-12 1.0648e-11 1.49959e-11 2.09612e-11 2.90811e-11 4.00461e-11 5.47357e-11 7.4259e-11 1.00001e-10 1.33672e-10 1.77366e-10 2.33615e-10 3.05451e-10 3.96463e-10 5.10855e-10 6.53486e-10 8.29913e-10 1.0464e-09 1.30994e-09 1.62818e-09 2.00943e-09 2.46252e-09 2.99667e-09 3.62138e-09 4.34616e-09 5.18032e-09 6.1327e-09 7.21137e-09 8.42331e-09 9.7741e-09 1.12676e-08 1.29057e-08 1.4688e-08 1.66117e-08 1.86715e-08 2.08592e-08 2.31642e-08 2.55734e-08 2.80714e-08 3.06406e-08 3.3262e-08 3.59152e-08 3.8579e-08 4.12322e-08 4.38536e-08 4.64228e-08 4.89208e-08 5.133e-08 5.3635e-08 5.58227e-08 5.78824e-08 5.98062e-08 6.15885e-08 6.32266e-08 6.47201e-08 6.60709e-08 6.72828e-08 6.83615e-08 6.93139e-08 7.0148e-08 7.08728e-08 7.14975e-08 7.20317e-08 7.24848e-08 7.2866e-08 7.31843e-08 7.34478e-08 7.36643e-08 7.38407e-08 7.39833e-08 7.40977e-08 7.41887e-08 7.42606e-08 7.43168e-08 7.43605e-08 7.43942e-08 7.44199e-08 7.44395e-08 7.44541e-08 7.44651e-08 7.44732e-08 7.44792e-08 7.44835e-08 7.44867e-08 7.44889e-08 7.44905e-08 7.44917e-08 7.44925e-08 7.4493e-08 7.44934e-08 7.44937e-08 7.44938e-08 7.4494e-08 7.4494e-08 7.44941e-08 7.44941e-08 7.44942e-08 7.44942e-08 7.44942e-08 7.44942e-08 7.44942e-08 7.44942e-08 7.44942e-08 7.44942e-08 7.44942e-08 7.44942e-08 7.44942e-08 7.44942e-08 7.44942e-08 7.44942e-08 7.44942e-08 7.44942e-08 7.44942e-08 7.44942e-08 7.44942e-08 7.44942e-08 7.44941e-08 7.44941e-08 7.4494e-08 7.4494e-08 7.44938e-08 7.44937e-08 7.44934e-08 7.4493e-08 7.44925e-08 7.44917e-08 7.44905e-08 7.44889e-08 7.44867e-08 7.44835e-08 7.44792e-08 7.44732e-08 7.44651e-08 7.44541e-08 7.44395e-08 7.44199e-08 7.43942e-08 7.43605e-08 7.43168e-08 7.42606e-08 7.41887e-08 7.40977e-08 7.39833e-08 7.38407e-08 7.36643e-08 7.34478e-08 7.31843e-08 7.2866e-08 7.24848e-08 7.20317e-08 7.14975e-08 7.08728e-08 7.0148e-08 6.93139e-08 6.83615e-08 6.72828e-08 6.60709e-08 6.47201e-08 6.32266e-08 6.15885e-08 5.98062e-08 5.78824e-08 5.58227e-08 5.3635e-08 5.133e-08 4.89208e-08 4.64228e-08 4.38536e-08 4.12322e-08 3.8579e-08 3.59152e-08 3.3262e-08 3.06406e-08 2.80714e-08 2.55734e-08 2.31642e-08 2.08592e-08 1.86715e-08 1.66117e-08 1.4688e-08 1.29057e-08 1.12676e-08 9.7741e-09 8.42331e-09 7.21137e-09 6.1327e-09 5.18032e-09 4.34616e-09 3.62138e-09 2.99667e-09 2.46252e-09 2.00943e-09 1.62818e-09 1.30994e-09 1.0464e-09 8.29913e-10 6.53486e-10 5.10855e-10 3.96463e-10 3.05451e-10 2.33615e-10 1.77366e-10 1.33672e-10 1.00001e-10 7.4259e-11 5.47357e-11 4.00461e-11 2.90811e-11 2.09612e-11 1.49959e-11 1.0648e-11 7.50422e-12 5.24898e-12 3.64396e-12 2.51072e-12 1.71689e-12 1.16522e-12 7.84846e-13 5.24656e-13 3.48076e-13 2.29182e-13 1.49758e-13 9.71184e-14 6.25041e-14 3.99208e-14 2.53014e-14 1.59098e-14 9.92033e-15 6.12466e-15 3.72793e-15 2.2091e-15 1.22498e-15 5.44119e-16 0 
0 8.94655e-16 2.01376e-15 3.63056e-15 6.12466e-15 1.00587e-14 1.62864e-14 2.61097e-14 4.15074e-14 6.54671e-14 1.02466e-13 1.59155e-13 2.45336e-13 3.75323e-13 5.69845e-13 8.58653e-13 1.28408e-12 1.90581e-12 2.80727e-12 4.10403e-12 5.95472e-12 8.57511e-12 1.2256e-11 1.73859e-11 2.44785e-11 3.42073e-11 4.74465e-11 6.53202e-11 8.92597e-11 1.21069e-10 1.63001e-10 2.17838e-10 2.88982e-10 3.8055e-10 4.97469e-10 6.45572e-10 8.31685e-10 1.0637e-09 1.35064e-09 1.70268e-09 2.13116e-09 2.64851e-09 3.26819e-09 4.00452e-09 4.8725e-09 5.88749e-09 7.06492e-09 8.4199e-09 9.96675e-09 1.17185e-08 1.36866e-08 1.58799e-08 1.83047e-08 2.09641e-08 2.38575e-08 2.69802e-08 3.03235e-08 3.38743e-08 3.76155e-08 4.15255e-08 4.55795e-08 4.97491e-08 5.40032e-08 5.83089e-08 6.26319e-08 6.69376e-08 7.11917e-08 7.53613e-08 7.94153e-08 8.33254e-08 8.70665e-08 9.06173e-08 9.39606e-08 9.70833e-08 9.99767e-08 1.02636e-07 1.05061e-07 1.07254e-07 1.09222e-07 1.10974e-07 1.12521e-07 1.13876e-07 1.15053e-07 1.16068e-07 1.16936e-07 1.17673e-07 1.18292e-07 1.1881e-07 1.19238e-07 1.1959e-07 1.19877e-07 1.20109e-07 1.20295e-07 1.20443e-07 1.2056e-07 1.20652e-07 1.20723e-07 1.20778e-07 1.2082e-07 1.20852e-07 1.20876e-07 1.20893e-07 1.20907e-07 1.20916e-07 1.20923e-07 1.20929e-07 1.20932e-07 1.20935e-07 1.20937e-07 1.20938e-07 1.20939e-07 1.2094e-07 1.2094e-07 1.2094e-07 1.2094e-07 1.20941e-07 1.20941e-07 1.20941e-07 1.20941e-07 1.20941e-07 1.20941e-07 1.20941e-07 1.20941e-07 1.20941e-07 1.20941e-07 1.20941e-07 1.20941e-07 1.20941e-07 1.20941e-07 1.20941e-07 1.20941e-07 1.20941e-07 1.20941e-07 1.20941e-07 1.20941e-07 1.20941e-07 1.20941e-07 1.20941e-07 1.20941e-07 1.20941e-07 1.20941e-07 1.2094e-07 1.2094e-07 1.2094e-07 1.2094e-07 1.20939e-07 1.20938e-07 1.20937e-07 1.20935e-07 1.20932e-07 1.20929e-07 1.20923e-07 1.20916e-07 1.20907e-07 1.20893e-07 1.20876e-07 1.20852e-07 1.2082e-07 1.20778e-07 1.20723e-07 1.20652e-07 1.2056e-07 1.20443e-07 1.20295e-07 1.20109e-07 1.19877e-07 1.1959e-07 1.19238e-07 1.1881e-07 1.18292e-07 1.17673e-07 1.16936e-07 1.16068e-07 1.15053e-07 1.13876e-07 1.12521e-07 1.10974e-07 1.09222e-07 1.07254e-07 1.05061e-07 1.02636e-07 9.99767e-08 9.70833e-08 9.39606e-08 9.06173e-08 8.70665e-08 8.33254e-08 7.94153e-08 7.53613e-08 7.11917e-08 6.69376e-08 6.26319e-08 5.83089e-08 5.40032e-08 4.97491e-08 4.55795e-08 4.15255e-08 3.76155e-08 3.38743e-08 3.03235e-08 2.69802e-08 2.38575e-08 2.09641e-08 1.83047e-08 1.58799e-08 1.36866e-08 1.17185e-08 9.96675e-09 8.4199e-09 7.06492e-09 5.88749e-09 4.8725e-09 4.00452e-09 3.26819e-09 2.64851e-09 2.13116e-09 1.70268e-09 1.35064e-09 1.0637e-09 8.31685e-10 6.45572e-10 4.97469e-10 3.8055e-10 2.88982e-10 2.17838e-10 1.63001e-10 1.21069e-10 8.92597e-11 6.53202e-11 4.74465e-11 3.42073e-11 2.44785e-11 1.73859e-11 1.2256e-11 8.57511e-12 5.95472e-12 4.10403e-12 2.80727e-12 1.90581e-12 1.28408e-12 8.58653e-13 5.69845e-13 3.75323e-13 2.45336e-13 1.59155e-13 1.02466e-13 6.54671e-14 4.15074e-14 2.61097e-14 1.62864e-14 1.00587e-14 6.12466e-15 3.63056e-15 2.01376e-15 8.94655e-16 0 
0 1.4503e-15 3.26381e-15 5.88255e-15 9.92033e-15 1.62864e-14 2.636e-14 4.22434e-14 6.71302e-14 1.05841e-13 1.65597e-13 2.57122e-13 3.96211e-13 6.05929e-13 9.19659e-13 1.3853e-12 2.07098e-12 3.07274e-12 4.52478e-12 6.61289e-12 9.59208e-12 1.38091e-11 1.97311e-11 2.7982e-11 3.93866e-11 5.50261e-11 7.63031e-11 1.05021e-10 1.43476e-10 1.9456e-10 2.61884e-10 3.49909e-10 4.64085e-10 6.11009e-10 7.98571e-10 1.03611e-09 1.33455e-09 1.70654e-09 2.1665e-09 2.73073e-09 3.41734e-09 4.24624e-09 5.23895e-09 6.41836e-09 7.80843e-09 9.43374e-09 1.13189e-08 1.34881e-08 1.59642e-08 1.87681e-08 2.19178e-08 2.54277e-08 2.93078e-08 3.35629e-08 3.8192e-08 4.31877e-08 4.8536e-08 5.42161e-08 6.02002e-08 6.64544e-08 7.29386e-08 7.96075e-08 8.64115e-08 9.32979e-08 1.00212e-07 1.07098e-07 1.13902e-07 1.20571e-07 1.27055e-07 1.3331e-07 1.39294e-07 1.44974e-07 1.50322e-07 1.55318e-07 1.59947e-07 1.64202e-07 1.68082e-07 1.71592e-07 1.74742e-07 1.77546e-07 1.80022e-07 1.82191e-07 1.84076e-07 1.85701e-07 1.87092e-07 1.88271e-07 1.89264e-07 1.90093e-07 1.90779e-07 1.91343e-07 1.91803e-07 1.92175e-07 1.92474e-07 1.92711e-07 1.92899e-07 1.93046e-07 1.9316e-07 1.93248e-07 1.93315e-07 1.93366e-07 1.93405e-07 1.93434e-07 1.93455e-07 1.9347e-07 1.93482e-07 1.9349e-07 1.93496e-07 1.935e-07 1.93503e-07 1.93505e-07 1.93507e-07 1.93508e-07 1.93508e-07 1.93509e-07 1.93509e-07 1.9351e-07 1.9351e-07 1.9351e-07 1.9351e-07 1.9351e-07 1.9351e-07 1.9351e-07 1.9351e-07 1.9351e-07 1.9351e-07 1.9351e-07 1.9351e-07 1.9351e-07 1.9351e-07 1.9351e-07 1.9351e-07 1.9351e-07 1.9351e-07 1.9351e-07 1.9351e-07 1.9351e-07 1.9351e-07 1.9351e-07 1.9351e-07 1.9351e-07 1.9351e-07 1.93509e-07 1.93509e-07 1.93508e-07 1.93508e-07 1.93507e-07 1.93505e-07 1.93503e-07 1.935e-07 1.93496e-07 1.9349e-07 1.93482e-07 1.9347e-07 1.93455e-07 1.93434e-07 1.93405e-07 1.93366e-07 1.93315e-07 1.93248e-07 1.9316e-07 1.93046e-07 1.92899e-07 1.92711e-07 1.92474e-07 1.92175e-07 1.91803e-07 1.91343e-07 1.90779e-07 1.90093e-07 1.89264e-07 1.88271e-07 1.87092e-07 1.85701e-07 1.84076e-07 1.82191e-07 1.80022e-07 1.77546e-07 1.74742e-07 1.71592e-07 1.68082e-07 1.64202e-07 1.59947e-07 1.55318e-07 1.50322e-07 1.44974e-07 1.39294e-07 1.3331e-07 1.27055e-07 1.20571e-07 1.13902e-07 1.07098e-07 1.00212e-07 9.32979e-08 8.64115e-08 7.96075e-08 7.29386e-08 6.64544e-08 6.02002e-08 5.42161e-08 4.8536e-08 4.31877e-08 3.8192e-08 3.35629e-08 2.93078e-08 2.54277e-08 2.19178e-08 1.87681e-08 1.59642e-08 1.34881e-08 1.13189e-08 9.43374e-09 7.80843e-09 6.41836e-09 5.23895e-09 4.24624e-09 3.41734e-09 2.73073e-09 2.1665e-09 1.70654e-09 1.33455e-09 1.03611e-09 7.98571e-10 6.11009e-10 4.64085e-10 3.49909e-10 2.61884e-10 1.9456e-10 1.43476e-10 1.05021e-10 7.63031e-11 5.50261e-11 3.93866e-11 2.7982e-11 1.97311e-11 1.38091e-11 9.59208e-12 6.61289e-12 4.52478e-12 3.07274e-12 2.07098e-12 1.3853e-12 9.19659e-13 6.05929e-13 3.96211e-13 2.57122e-13 1.65597e-13 1.05841e-13 6.71302e-14 4.22434e-14 2.636e-14 1.62864e-14 9.92033e-15 5.88255e-15 3.26381e-15 1.4503e-15 0 
0 2.32783e-15 5.23764e-15 9.43738e-15 1.59098e-14 2.61098e-14 4.22434e-14 6.76716e-14 1.07499e-13 1.69425e-13 2.64982e-13 4.11289e-13 6.33552e-13 9.68562e-13 1.46955e-12 2.21288e-12 3.30712e-12 4.90525e-12 7.22099e-12 1.05501e-11 1.52986e-11 2.20179e-11 3.14513e-11 4.45907e-11 6.27476e-11 8.76398e-11 1.21496e-10 1.67182e-10 2.28341e-10 3.09567e-10 4.16592e-10 5.56491e-10 7.37914e-10 9.71322e-10 1.26923e-09 1.64644e-09 2.12028e-09 2.71077e-09 3.44078e-09 4.33612e-09 5.42549e-09 6.74039e-09 8.31491e-09 1.01853e-08 1.23895e-08 1.49663e-08 1.79548e-08 2.13931e-08 2.53174e-08 2.97607e-08 3.47515e-08 4.03126e-08 4.64598e-08 5.32005e-08 6.05332e-08 6.84461e-08 7.69171e-08 8.5913e-08 9.53901e-08 1.05295e-07 1.15563e-07 1.26123e-07 1.36898e-07 1.47802e-07 1.58751e-07 1.69656e-07 1.8043e-07 1.90991e-07 2.01259e-07 2.11163e-07 2.20641e-07 2.29636e-07 2.38107e-07 2.4602e-07 2.53353e-07 2.60094e-07 2.66241e-07 2.71802e-07 2.76793e-07 2.81236e-07 2.85161e-07 2.88599e-07 2.91587e-07 2.94164e-07 2.96368e-07 2.98239e-07 2.99813e-07 3.01128e-07 3.02217e-07 3.03113e-07 3.03843e-07 3.04433e-07 3.04907e-07 3.05284e-07 3.05582e-07 3.05816e-07 3.05997e-07 3.06137e-07 3.06244e-07 3.06325e-07 3.06386e-07 3.06432e-07 3.06466e-07 3.06491e-07 3.06509e-07 3.06522e-07 3.06532e-07 3.06538e-07 3.06543e-07 3.06546e-07 3.06549e-07 3.0655e-07 3.06551e-07 3.06552e-07 3.06553e-07 3.06553e-07 3.06553e-07 3.06553e-07 3.06553e-07 3.06554e-07 3.06554e-07 3.06554e-07 3.06554e-07 3.06554e-07 3.06554e-07 3.06554e-07 3.06554e-07 3.06554e-07 3.06554e-07 3.06554e-07 3.06554e-07 3.06554e-07 3.06554e-07 3.06554e-07 3.06554e-07 3.06554e-07 3.06554e-07 3.06553e-07 3.06553e-07 3.06553e-07 3.06553e-07 3.06553e-07 3.06552e-07 3.06551e-07 3.0655e-07 3.06549e-07 3.06546e-07 3.06543e-07 3.06538e-07 3.06532e-07 3.06522e-07 3.06509e-07 3.06491e-07 3.06466e-07 3.06432e-07 3.06386e-07 3.06325e-07 3.06244e-07 3.06137e-07 3.05997e-07 3.05816e-07 3.05582e-07 3.05284e-07 3.04907e-07 3.04433e-07 3.03843e-07 3.03113e-07 3.02217e-07 3.01128e-07 2.99813e-07 2.98239e-07 2.96368e-07 2.94164e-07 2.91587e-07 2.88599e-07 2.85161e-07 2.81236e-07 2.76793e-07 2.71802e-07 2.66241e-07 2.60094e-07 2.53353e-07 2.4602e-07 2.38107e-07 2.29636e-07 2.20641e-07 2.11163e-07 2.01259e-07 1.90991e-07 1.8043e-07 1.69656e-07 1.58751e-07 1.47802e-07 1.36898e-07 1.26123e-07 1.15563e-07 1.05295e-07 9.53901e-08 8.5913e-08 7.69171e-08 6.84461e-08 6.05332e-08 5.32005e-08 4.64598e-08 4.03126e-08 3.47515e-08 2.97607e-08 2.53174e-08 2.13931e-08 1.79548e-08 1.49663e-08 1.23895e-08 1.01853e-08 8.31491e-09 6.74039e-09 5.42549e-09 4.33612e-09 3.44078e-09 2.71077e-09 2.12028e-09 1.64644e-09 1.26923e-09 9.71322e-10 7.37914e-10 5.56491e-10 4.16592e-10 3.09567e-10 2.28341e-10 1.67182e-10 1.21496e-10 8.76398e-11 6.27476e-11 4.45907e-11 3.14513e-11 2.20179e-11 1.52986e-11 1.05501e-11 7.22099e-12 4.90525e-12 3.30712e-12 2.21288e-12 1.46955e-12 9.68562e-13 6.33552e-13 4.11289e-13 2.64982e-13 1.69425e-13 1.07499e-13 6.76716e-14 4.22434e-14 2.61098e-14 1.59098e-14 9.43738e-15 5.23764e-15 2.32783e-15 0 
0 3.70499e-15 8.33464e-15 1.50134e-14 2.53014e-14 4.15074e-14 6.71302e-14 1.07499e-13 1.70701e-13 2.68938e-13 4.20468e-13 6.52393e-13 1.0046e-12 1.53529e-12 2.32863e-12 3.50535e-12 5.237e-12 7.76528e-12 1.14277e-11 1.66912e-11 2.41965e-11 3.48138e-11 4.97156e-11 7.04657e-11 9.91318e-11 1.38421e-10 1.91846e-10 2.63919e-10 3.60379e-10 4.8846e-10 6.5718e-10 8.77678e-10 1.16356e-09 1.53128e-09 2.00052e-09 2.59456e-09 3.34062e-09 4.27018e-09 5.41918e-09 6.82815e-09 8.54218e-09 1.06108e-08 1.30874e-08 1.60289e-08 1.9495e-08 2.35465e-08 2.82446e-08 3.36494e-08 3.98173e-08 4.68003e-08 5.46431e-08 6.33812e-08 7.30393e-08 8.36292e-08 9.51482e-08 1.07578e-07 1.20884e-07 1.35013e-07 1.49898e-07 1.65453e-07 1.81579e-07 1.98164e-07 2.15084e-07 2.32209e-07 2.49402e-07 2.66527e-07 2.83447e-07 3.00032e-07 3.16158e-07 3.31714e-07 3.46598e-07 3.60728e-07 3.74033e-07 3.86463e-07 3.97982e-07 4.08572e-07 4.1823e-07 4.26968e-07 4.34811e-07 4.41794e-07 4.47962e-07 4.53367e-07 4.58065e-07 4.62116e-07 4.65582e-07 4.68524e-07 4.71e-07 4.73069e-07 4.74783e-07 4.76192e-07 4.77341e-07 4.78271e-07 4.79017e-07 4.79611e-07 4.8008e-07 4.80448e-07 4.80734e-07 4.80954e-07 4.81123e-07 4.81251e-07 4.81347e-07 4.81419e-07 4.81473e-07 4.81512e-07 4.81541e-07 4.81562e-07 4.81576e-07 4.81587e-07 4.81595e-07 4.816e-07 4.81603e-07 4.81606e-07 4.81608e-07 4.81609e-07 4.8161e-07 4.8161e-07 4.81611e-07 4.81611e-07 4.81611e-07 4.81611e-07 4.81611e-07 4.81611e-07 4.81611e-07 4.81611e-07 4.81611e-07 4.81611e-07 4.81611e-07 4.81611e-07 4.81611e-07 4.81611e-07 4.81611e-07 4.81611e-07 4.81611e-07 4.81611e-07 4.81611e-07 4.81611e-07 4.81611e-07 4.81611e-07 4.81611e-07 4.81611e-07 4.8161e-07 4.8161e-07 4.81609e-07 4.81608e-07 4.81606e-07 4.81603e-07 4.816e-07 4.81595e-07 4.81587e-07 4.81576e-07 4.81562e-07 4.81541e-07 4.81512e-07 4.81473e-07 4.81419e-07 4.81347e-07 4.81251e-07 4.81123e-07 4.80954e-07 4.80734e-07 4.80448e-07 4.8008e-07 4.79611e-07 4.79017e-07 4.78271e-07 4.77341e-07 4.76192e-07 4.74783e-07 4.73069e-07 4.71e-07 4.68524e-07 4.65582e-07 4.62116e-07 4.58065e-07 4.53367e-07 4.47962e-07 4.41794e-07 4.34811e-07 4.26968e-07 4.1823e-07 4.08572e-07 3.97982e-07 3.86463e-07 3.74033e-07 3.60728e-07 3.46598e-07 3.31714e-07 3.16158e-07 3.00032e-07 2.83447e-07 2.66527e-07 2.49402e-07 2.32209e-07 2.15084e-07 1.98164e-07 1.81579e-07 1.65453e-07 1.49898e-07 1.35013e-07 1.20884e-07 1.07578e-07 9.51482e-08 8.36292e-08 7.30393e-08 6.33812e-08 5.46431e-08 4.68003e-08 3.98173e-08 3.36494e-08 2.82446e-08 2.35465e-08 1.9495e-08 1.60289e-08 1.30874e-08 1.06108e-08 8.54218e-09 6.82815e-09 5.41918e-09 4.27018e-09 3.34062e-09 2.59456e-09 2.00052e-09 1.53128e-09 1.16356e-09 8.77678e-10 6.5718e-10 4.8846e-10 3.60379e-10 2.63919e-10 1.91846e-10 1.38421e-10 9.91318e-11 7.04657e-11 4.97156e-11 3.48138e-11 2.41965e-11 1.66912e-11 1.14277e-11 7.76528e-12 5.237e-12 3.50535e-12 2.32863e-12 1.53529e-12 1.0046e-12 6.52393e-13 4.20468e-13 2.68938e-13 1.70701e-13 1.07499e-13 6.71302e-14 4.15074e-14 2.53014e-14 1.50134e-14 8.33464e-15 3.70499e-15 0 
0 5.85047e-15 1.31585e-14 2.36962e-14 3.99208e-14 6.54671e-14 1.05841e-13 1.69425e-13 2.68938e-13 4.23555e-13 6.61966e-13 1.02674e-12 1.5805e-12 2.41459e-12 3.6611e-12 5.50936e-12 8.22837e-12 1.2197e-11 1.79441e-11 2.62013e-11 3.79716e-11 5.46179e-11 7.79749e-11 1.1049e-10 1.55397e-10 2.1693e-10 3.0058e-10 4.134e-10 5.64359e-10 7.64756e-10 1.02868e-09 1.37352e-09 1.82052e-09 2.39536e-09 3.12876e-09 4.05702e-09 5.22264e-09 6.67467e-09 8.46918e-09 1.06693e-08 1.33454e-08 1.65745e-08 2.04401e-08 2.50306e-08 3.04389e-08 3.676e-08 4.40891e-08 5.25194e-08 6.21392e-08 7.3029e-08 8.52583e-08 9.88827e-08 1.1394e-07 1.30449e-07 1.48406e-07 1.6778e-07 1.88519e-07 2.10541e-07 2.33739e-07 2.57981e-07 2.83112e-07 3.08957e-07 3.35324e-07 3.6201e-07 3.88804e-07 4.1549e-07 4.41857e-07 4.67702e-07 4.92833e-07 5.17075e-07 5.40273e-07 5.62295e-07 5.83034e-07 6.02408e-07 6.20365e-07 6.36874e-07 6.51931e-07 6.65556e-07 6.77785e-07 6.88675e-07 6.98295e-07 7.06725e-07 7.14054e-07 7.20375e-07 7.25783e-07 7.30374e-07 7.3424e-07 7.37469e-07 7.40145e-07 7.42345e-07 7.44139e-07 7.45591e-07 7.46757e-07 7.47685e-07 7.48419e-07 7.48994e-07 7.49441e-07 7.49785e-07 7.50049e-07 7.5025e-07 7.50401e-07 7.50514e-07 7.50597e-07 7.50659e-07 7.50704e-07 7.50736e-07 7.5076e-07 7.50776e-07 7.50788e-07 7.50796e-07 7.50802e-07 7.50806e-07 7.50809e-07 7.50811e-07 7.50812e-07 7.50813e-07 7.50813e-07 7.50814e-07 7.50814e-07 7.50814e-07 7.50814e-07 7.50814e-07 7.50814e-07 7.50814e-07 7.50814e-07 7.50814e-07 7.50814e-07 7.50814e-07 7.50814e-07 7.50814e-07 7.50814e-07 7.50814e-07 7.50814e-07 7.50814e-07 7.50814e-07 7.50814e-07 7.50814e-07 7.50814e-07 7.50814e-07 7.50813e-07 7.50813e-07 7.50812e-07 7.50811e-07 7.50809e-07 7.50806e-07 7.50802e-07 7.50796e-07 7.50788e-07 7.50776e-07 7.5076e-07 7.50736e-07 7.50704e-07 7.50659e-07 7.50597e-07 7.50514e-07 7.50401e-07 7.5025e-07 7.50049e-07 7.49785e-07 7.49441e-07 7.48994e-07 7.48419e-07 7.47685e-07 7.46757e-07 7.45591e-07 7.44139e-07 7.42345e-07 7.40145e-07 7.37469e-07 7.3424e-07 7.30374e-07 7.25783e-07 7.20375e-07 7.14054e-07 7.06725e-07 6.98295e-07 6.88675e-07 6.77785e-07 6.65556e-07 6.51931e-07 6.36874e-07 6.20365e-07 6.02408e-07 5.83034e-07 5.62295e-07 5.40273e-07 5.17075e-07 4.92833e-07 4.67702e-07 4.41857e-07 4.1549e-07 3.88804e-07 3.6201e-07 3.35324e-07 3.08957e-07 2.83112e-07 2.57981e-07 2.33739e-07 2.10541e-07 1.88519e-07 1.6778e-07 1.48406e-07 1.30449e-07 1.1394e-07 9.88827e-08 8.52583e-08 7.3029e-08 6.21392e-08 5.25194e-08 4.40891e-08 3.676e-08 3.04389e-08 2.50306e-08 2.04401e-08 1.65745e-08 1.33454e-08 1.06693e-08 8.46918e-09 6.67467e-09 5.22264e-09 4.05702e-09 3.12876e-09 2.39536e-09 1.82052e-09 1.37352e-09 1.02868e-09 7.64756e-10 5.64359e-10 4.134e-10 3.0058e-10 2.1693e-10 1.55397e-10 1.1049e-10 7.79749e-11 5.46179e-11 3.79716e-11 2.62013e-11 1.79441e-11 1.2197e-11 8.22837e-12 5.50936e-12 3.6611e-12 2.41459e-12 1.5805e-12 1.02674e-12 6.61966e-13 4.23555e-13 2.68938e-13 1.69425e-13 1.05841e-13 6.54671e-14 3.99208e-14 2.36962e-14 1.31585e-14 5.85047e-15 0 