<?xml version="1.0"?>
<VTKFile type="ImageData" version="0.1" byte_order="LittleEndian">
  <ImageData WholeExtent="0 255 0 255 0 0" Origin="0 0 0" Spacing="1 1 1">
  <Piece Extent="0 255 0 255 0 0">
    <PointData>
      <DataArray type="Float32" Name="scalar_data" format="ascii" >0 0 0 0 0 0 0 0 0 0 0 0 0 0 0 0 0 0 0 0 0 0 0 0 0 0 0 0 0 0 0 0 0 0 0 0 0 0 0 0 0 0 0 0 0 0 0 0 0 0 0 0 0 0 0 0 0 0 0 0 0 0 0 0 0 0 0 0 0 0 0 0 0 0 0 0 0 0 0 0 0 0 0 0 0 0 0 0 0 0 0 0 0 0 0 0 0 0 0 0 0 0 0 0 0 0 0 0 0 0 0 0 0 0 0 0 0 0 0 0 0 0 0 0 0 0 0 0 0 0 0 0 0 0 0 0 0 0 0 0 0 0 0 0 0 0 0 0 0 0 0 0 0 0 0 0 0 0 0 0 0 0 0 0 0 0 0 0 0 0 0 0 0 0 0 0 0 0 0 0 0 0 0 0 0 0 0 0 0 0 0 0 0 0 0 0 0 0 0 0 0 0 0 0 0 0 0 0 0 0 0 0 0 0 0 0 0 0 0 0 0 0 0 0 0 0 0 0 0 0 0 0 0 0 0 0 0 0 0 0 0 0 0 0 0 0 0 0 0 0 0 0 0 0 0 0 
0 2.04484e-24 5.44716e-24 1.23877e-23 2.71444e-23 5.84862e-23 1.24386e-22 2.61308e-22 5.42322e-22 1.11197e-21 2.25249e-21 4.50779e-21 8.9124e-21 1.74082e-20 3.35923e-20 6.40401e-20 1.20612e-19 2.24416e-19 4.12516e-19 7.49124e-19 1.34398e-18 2.38208e-18 4.17109e-18 7.21559e-18 1.23318e-17 2.08216e-17 3.4733e-17 5.72415e-17 9.32023e-17 1.49932e-16 2.38298e-16 3.74206e-16 5.80597e-16 8.9006e-16 1.3482e-15 2.01787e-15 2.98432e-15 4.36139e-15 6.29864e-15 8.9893e-15 1.26789e-14 1.76739e-14 2.435e-14 3.31594e-14 4.46355e-14 5.93948e-14 7.8134e-14 1.01623e-13 1.30688e-13 1.66193e-13 2.09011e-13 2.59987e-13 3.19897e-13 3.89404e-13 4.69012e-13 5.59021e-13 6.59482e-13 7.7017e-13 8.90562e-13 1.01983e-12 1.15684e-12 1.30019e-12 1.44825e-12 1.59921e-12 1.75115e-12 1.90211e-12 2.05017e-12 2.19352e-12 2.33053e-12 2.4598e-12 2.58019e-12 2.69088e-12 2.79134e-12 2.88135e-12 2.96095e-12 3.03046e-12 3.09037e-12 3.14135e-12 3.18416e-12 3.21967e-12 3.24874e-12 3.27222e-12 3.29096e-12 3.30572e-12 3.3172e-12 3.32601e-12 3.33268e-12 3.33768e-12 3.34137e-12 3.34406e-12 3.346e-12 3.34737e-12 3.34834e-12 3.34901e-12 3.34947e-12 3.34978e-12 3.34998e-12 3.35012e-12 3.35021e-12 3.35026e-12 3.3503e-12 3.35032e-12 3.35034e-12 3.35035e-12 3.35035e-12 3.35035e-12 3.35036e-12 3.35036e-12 3.35036e-12 3.35036e-12 3.35036e-12 3.35036e-12 3.35036e-12 3.35036e-12 3.35036e-12 3.35036e-12 3.35036e-12 3.35036e-12 3.35036e-12 3.35036e-12 3.35036e-12 3.35036e-12 3.35036e-12 3.35036e-12 3.35036e-12 3.35036e-12 3.35036e-12 3.35036e-12 3.35036e-12 3.35036e-12 3.35036e-12 3.35036e-12 3.35036e-12 3.35036e-12 3.35036e-12 3.35036e-12 3.35036e-12 3.35036e-12 3.35036e-12 3.35036e-12 3.35036e-12 3.35036e-12 3.35036e-12 3.35036e-12 3.35036e-12 3.35036e-12 3.35036e-12 3.35036e-12 3.35036e-12 3.35036e-12 3.35035e-12 3.35035e-12 3.35035e-12 3.35034e-12 3.35032e-12 3.3503e-12 3.35026e-12 3.35021e-12 3.35012e-12 3.34998e-12 3.34978e-12 3.34947e-12 3.34901e-12 3.34834e-12 3.34737e-12 3.346e-12 3.34406e-12 3.34137e-12 3.33768e-12 3.33268e-12 3.32601e-12 3.3172e-12 3.30572e-12 3.29096e-12 3.27222e-12 3.24874e-12 3.21967e-12 3.18416e-12 3.14135e-12 3.09037e-12 3.03046e-12 2.96095e-12 2.88135e-12 2.79134e-12 2.69088e-12 2.58019e-12 2.4598e-12 2.33053e-12 2.19352e-12 2.05017e-12 1.90211e-12 1.75115e-12 1.59921e-12 1.44825e-12 1.30019e-12 1.15684e-12 1.01983e-12 8.90562e-13 7.7017e-13 6.59482e-13 5.59021e-13 4.69012e-13 3.89404e-13 3.19897e-13 2.59987e-13 2.09011e-13 1.66193e-13 1.30688e-13 1.01623e-13 7.8134e-14 5.93948e-14 4.46355e-14 3.31594e-14 2.435e-14 1.76739e-14 1.26789e-14 8.9893e-15 6.29864e-15 4.36139e-15 2.98432e-15 2.01787e-15 1.3482e-15 8.9006e-16 5.80597e-16 3.74206e-16 2.38298e-16 1.49932e-16 9.32023e-17 5.72415e-17 3.4733e-17 2.08216e-17 1.23318e-17 7.21559e-18 4.17109e-18 2.38208e-18 1.34398e-18 7.49124e-19 4.12516e-19 2.24416e-19 1.20612e-19 6.40401e-20 3.35923e-20 1.74082e-20 8.9124e-21 4.50779e-21 2.25249e-21 1.11197e-21 5.42322e-22 2.61308e-22 1.24386e-22 5.84862e-23 2.71444e-23 1.23877e-23 5.44716e-24 2.04484e-24 0 
0 5.44716e-24 1.44993e-23 3.29407e-23 7.21034e-23 1.55189e-22 3.29696e-22 6.91893e-22 1.43448e-21 2.93828e-21 5.94611e-21 1.18881e-20 2.34817e-20 4.58231e-20 8.83437e-20 1.68268e-19 3.16635e-19 5.88643e-19 1.08113e-18 1.96172e-18 3.51665e-18 6.22811e-18 1.08973e-17 1.88374e-17 3.21708e-17 5.42808e-17 9.04849e-17 1.49024e-16 2.42489e-16 3.8984e-16 6.19222e-16 9.71808e-16 1.50693e-15 2.30886e-15 3.49543e-15 5.22893e-15 7.72941e-15 1.12906e-14 1.6298e-14 2.32497e-14 3.27782e-14 4.56727e-14 6.29001e-14 8.56237e-14 1.15215e-13 1.53259e-13 2.01547e-13 2.62054e-13 3.36904e-13 4.28316e-13 5.38527e-13 6.69702e-13 8.23835e-13 1.00262e-12 1.20736e-12 1.4388e-12 1.69707e-12 1.98161e-12 2.29105e-12 2.62327e-12 2.97536e-12 3.34373e-12 3.72419e-12 4.11209e-12 4.5025e-12 4.89039e-12 5.27085e-12 5.63922e-12 5.99131e-12 6.32353e-12 6.63297e-12 6.91751e-12 7.17579e-12 7.40723e-12 7.61196e-12 7.79075e-12 7.94488e-12 8.07606e-12 8.18627e-12 8.27768e-12 8.35253e-12 8.41304e-12 8.46132e-12 8.49937e-12 8.52896e-12 8.55168e-12 8.56891e-12 8.58181e-12 8.59133e-12 8.59829e-12 8.60329e-12 8.60685e-12 8.60935e-12 8.61109e-12 8.61227e-12 8.61308e-12 8.61361e-12 8.61396e-12 8.61419e-12 8.61434e-12 8.61443e-12 8.61449e-12 8.61453e-12 8.61455e-12 8.61456e-12 8.61457e-12 8.61458e-12 8.61458e-12 8.61458e-12 8.61458e-12 8.61458e-12 8.61458e-12 8.61458e-12 8.61458e-12 8.61458e-12 8.61458e-12 8.61458e-12 8.61458e-12 8.61458e-12 8.61458e-12 8.61458e-12 8.61458e-12 8.61458e-12 8.61458e-12 8.61458e-12 8.61458e-12 8.61458e-12 8.61458e-12 8.61458e-12 8.61458e-12 8.61458e-12 8.61458e-12 8.61458e-12 8.61458e-12 8.61458e-12 8.61458e-12 8.61458e-12 8.61458e-12 8.61458e-12 8.61458e-12 8.61458e-12 8.61458e-12 8.61458e-12 8.61458e-12 8.61458e-12 8.61458e-12 8.61458e-12 8.61458e-12 8.61458e-12 8.61458e-12 8.61457e-12 8.61456e-12 8.61455e-12 8.61453e-12 8.61449e-12 8.61443e-12 8.61434e-12 8.61419e-12 8.61396e-12 8.61361e-12 8.61308e-12 8.61227e-12 8.61109e-12 8.60935e-12 8.60685e-12 8.60329e-12 8.59829e-12 8.59133e-12 8.58181e-12 8.56891e-12 8.55168e-12 8.52896e-12 8.49937e-12 8.46132e-12 8.41304e-12 8.35253e-12 8.27768e-12 8.18627e-12 8.07606e-12 7.94488e-12 7.79075e-12 7.61196e-12 7.40723e-12 7.17579e-12 6.91751e-12 6.63297e-12 6.32353e-12 5.99131e-12 5.63922e-12 5.27085e-12 4.89039e-12 4.5025e-12 4.11209e-12 3.72419e-12 3.34373e-12 2.97536e-12 2.62327e-12 2.29105e-12 1.98161e-12 1.69707e-12 1.4388e-12 1.20736e-12 1.00262e-12 8.23835e-13 6.69702e-13 5.38527e-13 4.28316e-13 3.36904e-13 2.62054e-13 2.01547e-13 1.53259e-13 1.15215e-13 8.56237e-14 6.29001e-14 4.56727e-14 3.27782e-14 2.32497e-14 1.6298e-14 1.12906e-14 7.72941e-15 5.22893e-15 3.49543e-15 2.30886e-15 1.50693e-15 9.71808e-16 6.19222e-16 3.8984e-16 2.42489e-16 1.49024e-16 9.04849e-17 5.42808e-17 3.21708e-17 1.88374e-17 1.08973e-17 6.22811e-18 3.51665e-18 1.96172e-18 1.08113e-18 5.88643e-19 3.16635e-19 1.68268e-19 8.83437e-20 4.58231e-20 2.34817e-20 1.18881e-20 5.94611e-21 2.93828e-21 1.43448e-21 6.91893e-22 3.29696e-22 1.55189e-22 7.21034e-23 3.29407e-23 1.44993e-23 5.44716e-24 0 
0 1.23877e-23 3.29407e-23 7.47401e-23 1.63369e-22 3.51125e-22 7.44921e-22 1.56113e-21 3.2323e-21 6.61205e-21 1.33633e-20 2.66834e-20 5.26403e-20 1.02599e-19 1.97567e-19 3.75865e-19 7.0647e-19 1.3119e-18 2.40685e-18 4.36257e-18 7.81234e-18 1.38218e-17 2.41599e-17 4.17227e-17 7.11871e-17 1.20001e-16 1.99858e-16 3.28867e-16 5.34669e-16 8.58854e-16 1.36311e-15 2.13759e-15 3.31214e-15 5.07098e-15 7.67159e-15 1.14683e-14 1.69412e-14 2.47305e-14 3.56766e-14 5.08638e-14 7.16685e-14 9.98068e-14 1.37381e-13 1.86918e-13 2.51395e-13 3.34253e-13 4.39374e-13 5.71043e-13 7.33863e-13 9.32635e-13 1.1722e-12 1.45726e-12 1.7921e-12 2.18039e-12 2.62493e-12 3.12735e-12 3.68791e-12 4.30536e-12 4.97676e-12 5.69747e-12 6.46122e-12 7.26022e-12 8.08538e-12 8.92665e-12 9.77336e-12 1.06146e-11 1.14398e-11 1.22388e-11 1.30025e-11 1.37233e-11 1.43947e-11 1.50121e-11 1.55727e-11 1.60751e-11 1.65196e-11 1.69079e-11 1.72428e-11 1.75278e-11 1.77674e-11 1.79661e-11 1.8129e-11 1.82606e-11 1.83658e-11 1.84486e-11 1.85131e-11 1.85626e-11 1.86002e-11 1.86283e-11 1.86491e-11 1.86643e-11 1.86753e-11 1.86831e-11 1.86885e-11 1.86923e-11 1.86949e-11 1.86967e-11 1.86979e-11 1.86986e-11 1.86992e-11 1.86995e-11 1.86997e-11 1.86998e-11 1.86999e-11 1.86999e-11 1.87e-11 1.87e-11 1.87e-11 1.87e-11 1.87e-11 1.87e-11 1.87e-11 1.87e-11 1.87e-11 1.87e-11 1.87e-11 1.87e-11 1.87e-11 1.87e-11 1.87e-11 1.87e-11 1.87e-11 1.87e-11 1.87e-11 1.87e-11 1.87e-11 1.87e-11 1.87e-11 1.87e-11 1.87e-11 1.87e-11 1.87e-11 1.87e-11 1.87e-11 1.87e-11 1.87e-11 1.87e-11 1.87e-11 1.87e-11 1.87e-11 1.87e-11 1.87e-11 1.87e-11 1.87e-11 1.87e-11 1.87e-11 1.87e-11 1.87e-11 1.87e-11 1.87e-11 1.87e-11 1.87e-11 1.87e-11 1.86999e-11 1.86999e-11 1.86998e-11 1.86997e-11 1.86995e-11 1.86992e-11 1.86986e-11 1.86979e-11 1.86967e-11 1.86949e-11 1.86923e-11 1.86885e-11 1.86831e-11 1.86753e-11 1.86643e-11 1.86491e-11 1.86283e-11 1.86002e-11 1.85626e-11 1.85131e-11 1.84486e-11 1.83658e-11 1.82606e-11 1.8129e-11 1.79661e-11 1.77674e-11 1.75278e-11 1.72428e-11 1.69079e-11 1.65196e-11 1.60751e-11 1.55727e-11 1.50121e-11 1.43947e-11 1.37233e-11 1.30025e-11 1.22388e-11 1.14398e-11 1.06146e-11 9.77336e-12 8.92665e-12 8.08538e-12 7.26022e-12 6.46122e-12 5.69747e-12 4.97676e-12 4.30536e-12 3.68791e-12 3.12735e-12 2.62493e-12 2.18039e-12 1.7921e-12 1.45726e-12 1.1722e-12 9.32635e-13 7.33863e-13 5.71043e-13 4.39374e-13 3.34253e-13 2.51395e-13 1.86918e-13 1.37381e-13 9.98068e-14 7.16685e-14 5.08638e-14 3.56766e-14 2.47305e-14 1.69412e-14 1.14683e-14 7.67159e-15 5.07098e-15 3.31214e-15 2.13759e-15 1.36311e-15 8.58854e-16 5.34669e-16 3.28867e-16 1.99858e-16 1.20001e-16 7.11871e-17 4.17227e-17 2.41599e-17 1.38218e-17 7.81234e-18 4.36257e-18 2.40685e-18 1.3119e-18 7.0647e-19 3.75865e-19 1.97567e-19 1.02599e-19 5.26403e-20 2.66834e-20 1.33633e-20 6.61205e-21 3.2323e-21 1.56113e-21 7.44921e-22 3.51125e-22 1.63369e-22 7.47401e-23 3.29407e-23 1.23877e-23 0 
0 2.71444e-23 7.21034e-23 1.63369e-22 3.5656e-22 7.65184e-22 1.62092e-21 3.39197e-21 7.01284e-21 1.43252e-20 2.89115e-20 5.76505e-20 1.13579e-19 2.2108e-19 4.25169e-19 8.07848e-19 1.51654e-18 2.81277e-18 5.15429e-18 9.33167e-18 1.66919e-17 2.94991e-17 5.15073e-17 8.88564e-17 1.5145e-16 2.55045e-16 4.24356e-16 6.97616e-16 1.13313e-15 1.81853e-15 2.88371e-15 4.51831e-15 6.99524e-15 1.07014e-14 1.6177e-14 2.41649e-14 3.56711e-14 5.20359e-14 7.50172e-14 1.06882e-13 1.50506e-13 2.09472e-13 2.88166e-13 3.91858e-13 5.26754e-13 7.00017e-13 9.19733e-13 1.19481e-12 1.53483e-12 1.94977e-12 2.44968e-12 3.04429e-12 3.74254e-12 4.55204e-12 5.47853e-12 6.52539e-12 7.69317e-12 8.97919e-12 1.03774e-11 1.1878e-11 1.34681e-11 1.51314e-11 1.68491e-11 1.86002e-11 2.03627e-11 2.21138e-11 2.38315e-11 2.54948e-11 2.70849e-11 2.85855e-11 2.99837e-11 3.12697e-11 3.24375e-11 3.34843e-11 3.44108e-11 3.52203e-11 3.59186e-11 3.65132e-11 3.70131e-11 3.7428e-11 3.77681e-11 3.80431e-11 3.82628e-11 3.84361e-11 3.8571e-11 3.86747e-11 3.87534e-11 3.88124e-11 3.8856e-11 3.88878e-11 3.89108e-11 3.89272e-11 3.89387e-11 3.89467e-11 3.89522e-11 3.89559e-11 3.89583e-11 3.896e-11 3.8961e-11 3.89617e-11 3.89622e-11 3.89624e-11 3.89626e-11 3.89627e-11 3.89628e-11 3.89628e-11 3.89628e-11 3.89628e-11 3.89629e-11 3.89629e-11 3.89629e-11 3.89629e-11 3.89629e-11 3.89629e-11 3.89629e-11 3.89629e-11 3.89629e-11 3.89629e-11 3.89629e-11 3.89629e-11 3.89629e-11 3.89629e-11 3.89629e-11 3.89629e-11 3.89629e-11 3.89629e-11 3.89629e-11 3.89629e-11 3.89629e-11 3.89629e-11 3.89629e-11 3.89629e-11 3.89629e-11 3.89629e-11 3.89629e-11 3.89629e-11 3.89629e-11 3.89629e-11 3.89629e-11 3.89629e-11 3.89629e-11 3.89629e-11 3.89629e-11 3.89629e-11 3.89629e-11 3.89629e-11 3.89629e-11 3.89629e-11 3.89628e-11 3.89628e-11 3.89628e-11 3.89628e-11 3.89627e-11 3.89626e-11 3.89624e-11 3.89622e-11 3.89617e-11 3.8961e-11 3.896e-11 3.89583e-11 3.89559e-11 3.89522e-11 3.89467e-11 3.89387e-11 3.89272e-11 3.89108e-11 3.88878e-11 3.8856e-11 3.88124e-11 3.87534e-11 3.86747e-11 3.8571e-11 3.84361e-11 3.82628e-11 3.80431e-11 3.77681e-11 3.7428e-11 3.70131e-11 3.65132e-11 3.59186e-11 3.52203e-11 3.44108e-11 3.34843e-11 3.24375e-11 3.12697e-11 2.99837e-11 2.85855e-11 2.70849e-11 2.54948e-11 2.38315e-11 2.21138e-11 2.03627e-11 1.86002e-11 1.68491e-11 1.51314e-11 1.34681e-11 1.1878e-11 1.03774e-11 8.97919e-12 7.69317e-12 6.52539e-12 5.47853e-12 4.55204e-12 3.74254e-12 3.04429e-12 2.44968e-12 1.94977e-12 1.53483e-12 1.19481e-12 9.19733e-13 7.00017e-13 5.26754e-13 3.91858e-13 2.88166e-13 2.09472e-13 1.50506e-13 1.06882e-13 7.50172e-14 5.20359e-14 3.56711e-14 2.41649e-14 1.6177e-14 1.07014e-14 6.99524e-15 4.51831e-15 2.88371e-15 1.81853e-15 1.13313e-15 6.97616e-16 4.24356e-16 2.55045e-16 1.5145e-16 8.88564e-17 5.15073e-17 2.94991e-17 1.66919e-17 9.33167e-18 5.15429e-18 2.81277e-18 1.51654e-18 8.07848e-19 4.25169e-19 2.2108e-19 1.13579e-19 5.76505e-20 2.89115e-20 1.43252e-20 7.01284e-21 3.39197e-21 1.62092e-21 7.65184e-22 3.5656e-22 1.63369e-22 7.21034e-23 2.71444e-23 0 
0 5.84862e-23 1.55189e-22 3.51125e-22 7.65184e-22 1.63958e-21 3.46795e-21 7.24627e-21 1.49596e-20 3.05142e-20 6.14978e-20 1.22459e-19 2.40933e-19 4.6835e-19 8.9953e-19 1.70698e-18 3.20044e-18 5.92866e-18 1.0851e-17 1.96224e-17 3.5059e-17 6.18894e-17 1.07945e-16 1.86019e-16 3.16728e-16 5.32833e-16 8.85676e-16 1.45459e-15 2.36045e-15 3.78479e-15 5.99635e-15 9.38724e-15 1.45212e-14 2.21966e-14 3.35276e-14 5.00451e-14 7.382e-14 1.0761e-13 1.55029e-13 2.20736e-13 3.10632e-13 4.32071e-13 5.94045e-13 8.07352e-13 1.0847e-12 1.44076e-12 1.89206e-12 2.45682e-12 3.15461e-12 4.0058e-12 5.03093e-12 6.24984e-12 7.68072e-12 9.33908e-12 1.12366e-11 1.33801e-11 1.57707e-11 1.84029e-11 2.1264e-11 2.43345e-11 2.75876e-11 3.09901e-11 3.45037e-11 3.80856e-11 4.16905e-11 4.52724e-11 4.8786e-11 5.21886e-11 5.54416e-11 5.85121e-11 6.13733e-11 6.40054e-11 6.6396e-11 6.85395e-11 7.0437e-11 7.20954e-11 7.35263e-11 7.47452e-11 7.57703e-11 7.66215e-11 7.73193e-11 7.78841e-11 7.83354e-11 7.86914e-11 7.89688e-11 7.91821e-11 7.93441e-11 7.94655e-11 7.95554e-11 7.96211e-11 7.96685e-11 7.97023e-11 7.97261e-11 7.97426e-11 7.97539e-11 7.97616e-11 7.97667e-11 7.97701e-11 7.97723e-11 7.97738e-11 7.97747e-11 7.97752e-11 7.97756e-11 7.97758e-11 7.97759e-11 7.9776e-11 7.97761e-11 7.97761e-11 7.97761e-11 7.97761e-11 7.97761e-11 7.97761e-11 7.97761e-11 7.97761e-11 7.97761e-11 7.97761e-11 7.97761e-11 7.97761e-11 7.97761e-11 7.97761e-11 7.97761e-11 7.97761e-11 7.97761e-11 7.97761e-11 7.97761e-11 7.97761e-11 7.97761e-11 7.97761e-11 7.97761e-11 7.97761e-11 7.97761e-11 7.97761e-11 7.97761e-11 7.97761e-11 7.97761e-11 7.97761e-11 7.97761e-11 7.97761e-11 7.97761e-11 7.97761e-11 7.97761e-11 7.97761e-11 7.97761e-11 7.97761e-11 7.97761e-11 7.97761e-11 7.97761e-11 7.97761e-11 7.97761e-11 7.97761e-11 7.9776e-11 7.97759e-11 7.97758e-11 7.97756e-11 7.97752e-11 7.97747e-11 7.97738e-11 7.97723e-11 7.97701e-11 7.97667e-11 7.97616e-11 7.97539e-11 7.97426e-11 7.97261e-11 7.97023e-11 7.96685e-11 7.96211e-11 7.95554e-11 7.94655e-11 7.93441e-11 7.91821e-11 7.89688e-11 7.86914e-11 7.83354e-11 7.78841e-11 7.73193e-11 7.66215e-11 7.57703e-11 7.47452e-11 7.35263e-11 7.20954e-11 7.0437e-11 6.85395e-11 6.6396e-11 6.40054e-11 6.13733e-11 5.85121e-11 5.54416e-11 5.21886e-11 4.8786e-11 4.52724e-11 4.16905e-11 3.80856e-11 3.45037e-11 3.09901e-11 2.75876e-11 2.43345e-11 2.1264e-11 1.84029e-11 1.57707e-11 1.33801e-11 1.12366e-11 9.33908e-12 7.68072e-12 6.24984e-12 5.03093e-12 4.0058e-12 3.15461e-12 2.45682e-12 1.89206e-12 1.44076e-12 1.0847e-12 8.07352e-13 5.94045e-13 4.32071e-13 3.10632e-13 2.20736e-13 1.55029e-13 1.0761e-13 7.382e-14 5.00451e-14 3.35276e-14 2.21966e-14 1.45212e-14 9.38724e-15 5.99635e-15 3.78479e-15 2.36045e-15 1.45459e-15 8.85676e-16 5.32833e-16 3.16728e-16 1.86019e-16 1.07945e-16 6.18894e-17 3.5059e-17 1.96224e-17 1.0851e-17 5.92866e-18 3.20044e-18 1.70698e-18 8.9953e-19 4.6835e-19 2.40933e-19 1.22459e-19 6.14978e-20 3.05142e-20 1.49596e-20 7.24627e-21 3.46795e-21 1.63958e-21 7.65184e-22 3.51125e-22 1.55189e-22 5.84862e-23 0 
0 1.24386e-22 3.29696e-22 7.44921e-22 1.62092e-21 3.46795e-21 7.32421e-21 1.52813e-20 3.1502e-20 6.41655e-20 1.29137e-19 2.56796e-19 5.04556e-19 9.79516e-19 1.87886e-18 3.56089e-18 6.66808e-18 1.23373e-17 2.25538e-17 4.07376e-17 7.27026e-17 1.28199e-16 2.23356e-16 3.84498e-16 6.53995e-16 1.09911e-15 1.82515e-15 2.99468e-15 4.85512e-15 7.77775e-15 1.23117e-14 1.92573e-14 2.97646e-14 4.54607e-14 6.86143e-14 1.0234e-13 1.50849e-13 2.19744e-13 3.16362e-13 4.50152e-13 6.33083e-13 8.8005e-13 1.20926e-12 1.64257e-12 2.20568e-12 2.92823e-12 3.84362e-12 4.98864e-12 6.40275e-12 8.12706e-12 1.02029e-11 1.26704e-11 1.5566e-11 1.8921e-11 2.27587e-11 2.7093e-11 3.19258e-11 3.72458e-11 4.30278e-11 4.92319e-11 5.58042e-11 6.2678e-11 6.97754e-11 7.70106e-11 8.42924e-11 9.15276e-11 9.86251e-11 1.05499e-10 1.12071e-10 1.18275e-10 1.24057e-10 1.29377e-10 1.3421e-10 1.38544e-10 1.42382e-10 1.45737e-10 1.48633e-10 1.511e-10 1.53176e-10 1.549e-10 1.56314e-10 1.57459e-10 1.58375e-10 1.59097e-10 1.5966e-10 1.60094e-10 1.60423e-10 1.6067e-10 1.60853e-10 1.60987e-10 1.61083e-10 1.61152e-10 1.61201e-10 1.61234e-10 1.61258e-10 1.61273e-10 1.61284e-10 1.61291e-10 1.61295e-10 1.61298e-10 1.613e-10 1.61301e-10 1.61302e-10 1.61302e-10 1.61303e-10 1.61303e-10 1.61303e-10 1.61303e-10 1.61303e-10 1.61303e-10 1.61303e-10 1.61303e-10 1.61303e-10 1.61303e-10 1.61303e-10 1.61303e-10 1.61303e-10 1.61303e-10 1.61303e-10 1.61303e-10 1.61303e-10 1.61303e-10 1.61303e-10 1.61303e-10 1.61303e-10 1.61303e-10 1.61303e-10 1.61303e-10 1.61303e-10 1.61303e-10 1.61303e-10 1.61303e-10 1.61303e-10 1.61303e-10 1.61303e-10 1.61303e-10 1.61303e-10 1.61303e-10 1.61303e-10 1.61303e-10 1.61303e-10 1.61303e-10 1.61303e-10 1.61303e-10 1.61303e-10 1.61303e-10 1.61303e-10 1.61303e-10 1.61303e-10 1.61303e-10 1.61303e-10 1.61303e-10 1.61302e-10 1.61302e-10 1.61301e-10 1.613e-10 1.61298e-10 1.61295e-10 1.61291e-10 1.61284e-10 1.61273e-10 1.61258e-10 1.61234e-10 1.61201e-10 1.61152e-10 1.61083e-10 1.60987e-10 1.60853e-10 1.6067e-10 1.60423e-10 1.60094e-10 1.5966e-10 1.59097e-10 1.58375e-10 1.57459e-10 1.56314e-10 1.549e-10 1.53176e-10 1.511e-10 1.48633e-10 1.45737e-10 1.42382e-10 1.38544e-10 1.3421e-10 1.29377e-10 1.24057e-10 1.18275e-10 1.12071e-10 1.05499e-10 9.86251e-11 9.15276e-11 8.42924e-11 7.70106e-11 6.97754e-11 6.2678e-11 5.58042e-11 4.92319e-11 4.30278e-11 3.72458e-11 3.19258e-11 2.7093e-11 2.27587e-11 1.8921e-11 1.5566e-11 1.26704e-11 1.02029e-11 8.12706e-12 6.40275e-12 4.98864e-12 3.84362e-12 2.92823e-12 2.20568e-12 1.64257e-12 1.20926e-12 8.8005e-13 6.33083e-13 4.50152e-13 3.16362e-13 2.19744e-13 1.50849e-13 1.0234e-13 6.86143e-14 4.54607e-14 2.97646e-14 1.92573e-14 1.23117e-14 7.77775e-15 4.85512e-15 2.99468e-15 1.82515e-15 1.09911e-15 6.53995e-16 3.84498e-16 2.23356e-16 1.28199e-16 7.27026e-17 4.07376e-17 2.25538e-17 1.23373e-17 6.66808e-18 3.56089e-18 1.87886e-18 9.79516e-19 5.04556e-19 2.56796e-19 1.29137e-19 6.41655e-20 3.1502e-20 1.52813e-20 7.32421e-21 3.46795e-21 1.62092e-21 7.44921e-22 3.29696e-22 1.24386e-22 0 
0 2.61308e-22 6.91894e-22 1.56113e-21 3.39197e-21 7.24627e-21 1.52813e-20 3.18369e-20 6.55373e-20 1.33304e-19 2.67915e-19 5.32044e-19 1.04398e-18 2.0241e-18 3.8776e-18 7.33982e-18 1.37277e-17 2.53687e-17 4.63222e-17 8.35735e-17 1.48983e-16 2.6242e-16 4.56716e-16 7.85398e-16 1.33453e-15 2.2406e-15 3.71708e-15 6.09319e-15 9.86953e-15 1.57966e-14 2.49833e-14 3.90449e-14 6.02994e-14 9.2025e-14 1.38788e-13 2.06853e-13 3.04681e-13 4.43527e-13 6.38112e-13 9.07388e-13 1.27534e-12 1.7718e-12 2.43322e-12 3.30331e-12 4.43345e-12 5.88285e-12 7.71824e-12 1.0013e-11 1.28459e-11 1.62989e-11 2.04544e-11 2.53921e-11 3.11847e-11 3.78943e-11 4.55674e-11 5.42311e-11 6.38891e-11 7.4519e-11 8.607e-11 9.84625e-11 1.11589e-10 1.25316e-10 1.3949e-10 1.53937e-10 1.68478e-10 1.82926e-10 1.97099e-10 2.10826e-10 2.23953e-10 2.36345e-10 2.47896e-10 2.58526e-10 2.68184e-10 2.76848e-10 2.84521e-10 2.9123e-10 2.97023e-10 3.01961e-10 3.06116e-10 3.09569e-10 3.12402e-10 3.14697e-10 3.16532e-10 3.17982e-10 3.19112e-10 3.19982e-10 3.20643e-10 3.2114e-10 3.21508e-10 3.21777e-10 3.21972e-10 3.2211e-10 3.22208e-10 3.22276e-10 3.22323e-10 3.22355e-10 3.22376e-10 3.2239e-10 3.22399e-10 3.22405e-10 3.22409e-10 3.22411e-10 3.22413e-10 3.22414e-10 3.22414e-10 3.22415e-10 3.22415e-10 3.22415e-10 3.22415e-10 3.22415e-10 3.22415e-10 3.22415e-10 3.22415e-10 3.22415e-10 3.22415e-10 3.22415e-10 3.22415e-10 3.22415e-10 3.22415e-10 3.22415e-10 3.22415e-10 3.22415e-10 3.22415e-10 3.22415e-10 3.22415e-10 3.22415e-10 3.22415e-10 3.22415e-10 3.22415e-10 3.22415e-10 3.22415e-10 3.22415e-10 3.22415e-10 3.22415e-10 3.22415e-10 3.22415e-10 3.22415e-10 3.22415e-10 3.22415e-10 3.22415e-10 3.22415e-10 3.22415e-10 3.22415e-10 3.22415e-10 3.22415e-10 3.22415e-10 3.22415e-10 3.22415e-10 3.22415e-10 3.22415e-10 3.22415e-10 3.22414e-10 3.22414e-10 3.22413e-10 3.22411e-10 3.22409e-10 3.22405e-10 3.22399e-10 3.2239e-10 3.22376e-10 3.22355e-10 3.22323e-10 3.22276e-10 3.22208e-10 3.2211e-10 3.21972e-10 3.21777e-10 3.21508e-10 3.2114e-10 3.20643e-10 3.19982e-10 3.19112e-10 3.17982e-10 3.16532e-10 3.14697e-10 3.12402e-10 3.09569e-10 3.06116e-10 3.01961e-10 2.97023e-10 2.9123e-10 2.84521e-10 2.76848e-10 2.68184e-10 2.58526e-10 2.47896e-10 2.36345e-10 2.23953e-10 2.10826e-10 1.97099e-10 1.82926e-10 1.68478e-10 1.53937e-10 1.3949e-10 1.25316e-10 1.11589e-10 9.84625e-11 8.607e-11 7.4519e-11 6.38891e-11 5.42311e-11 4.55674e-11 3.78943e-11 3.11847e-11 2.53921e-11 2.04544e-11 1.62989e-11 1.28459e-11 1.0013e-11 7.71824e-12 5.88285e-12 4.43345e-12 3.30331e-12 2.43322e-12 1.7718e-12 1.27534e-12 9.07388e-13 6.38112e-13 4.43527e-13 3.04681e-13 2.06853e-13 1.38788e-13 9.2025e-14 6.02994e-14 3.90449e-14 2.49833e-14 1.57966e-14 9.86953e-15 6.09319e-15 3.71708e-15 2.2406e-15 1.33453e-15 7.85398e-16 4.56716e-16 2.6242e-16 1.48983e-16 8.35735e-17 4.63222e-17 2.53687e-17 1.37277e-17 7.33982e-18 3.8776e-18 2.0241e-18 1.04398e-18 5.32044e-19 2.67915e-19 1.33304e-19 6.55373e-20 3.18369e-20 1.52813e-20 7.24627e-21 3.39197e-21 1.56113e-21 6.91894e-22 2.61308e-22 0 
0 5.42322e-22 1.43448e-21 3.2323e-21 7.01284e-21 1.49596e-20 3.1502e-20 6.55373e-20 1.34721e-19 2.73649e-19 5.49238e-19 1.08927e-18 2.1346e-18 4.13334e-18 7.90842e-18 1.49513e-17 2.793e-17 5.1554e-17 9.40273e-17 1.69451e-16 3.01743e-16 5.3092e-16 9.23047e-16 1.5857e-15 2.6917e-15 4.51481e-15 7.48281e-15 1.22548e-14 1.9832e-14 3.17141e-14 5.01151e-14 7.82572e-14 1.20761e-13 1.84153e-13 2.77523e-13 4.13325e-13 6.08374e-13 8.85013e-13 1.27245e-12 1.80827e-12 2.54e-12 3.52671e-12 4.84053e-12 6.56792e-12 8.81046e-12 1.16851e-11 1.53236e-11 1.98709e-11 2.54822e-11 3.23191e-11 4.0544e-11 5.03137e-11 6.17715e-11 7.50392e-11 9.02083e-11 1.07332e-10 1.26416e-10 1.47418e-10 1.70235e-10 1.94711e-10 2.20634e-10 2.47741e-10 2.75727e-10 3.04254e-10 3.32963e-10 3.6149e-10 3.89476e-10 4.16583e-10 4.42506e-10 4.66983e-10 4.898e-10 5.10801e-10 5.29886e-10 5.47009e-10 5.62178e-10 5.75446e-10 5.86904e-10 5.96673e-10 6.04898e-10 6.11735e-10 6.17346e-10 6.21894e-10 6.25532e-10 6.28407e-10 6.30649e-10 6.32377e-10 6.33691e-10 6.34677e-10 6.35409e-10 6.35945e-10 6.36332e-10 6.36609e-10 6.36804e-10 6.3694e-10 6.37033e-10 6.37097e-10 6.37139e-10 6.37167e-10 6.37186e-10 6.37197e-10 6.37205e-10 6.3721e-10 6.37213e-10 6.37215e-10 6.37216e-10 6.37216e-10 6.37217e-10 6.37217e-10 6.37217e-10 6.37217e-10 6.37217e-10 6.37217e-10 6.37217e-10 6.37217e-10 6.37217e-10 6.37217e-10 6.37217e-10 6.37217e-10 6.37217e-10 6.37217e-10 6.37217e-10 6.37217e-10 6.37217e-10 6.37217e-10 6.37217e-10 6.37217e-10 6.37217e-10 6.37217e-10 6.37217e-10 6.37217e-10 6.37217e-10 6.37217e-10 6.37217e-10 6.37217e-10 6.37217e-10 6.37217e-10 6.37217e-10 6.37217e-10 6.37217e-10 6.37217e-10 6.37217e-10 6.37217e-10 6.37217e-10 6.37217e-10 6.37217e-10 6.37217e-10 6.37217e-10 6.37217e-10 6.37217e-10 6.37217e-10 6.37216e-10 6.37216e-10 6.37215e-10 6.37213e-10 6.3721e-10 6.37205e-10 6.37197e-10 6.37186e-10 6.37167e-10 6.37139e-10 6.37097e-10 6.37033e-10 6.3694e-10 6.36804e-10 6.36609e-10 6.36332e-10 6.35945e-10 6.35409e-10 6.34677e-10 6.33691e-10 6.32377e-10 6.30649e-10 6.28407e-10 6.25532e-10 6.21894e-10 6.17346e-10 6.11735e-10 6.04898e-10 5.96673e-10 5.86904e-10 5.75446e-10 5.62178e-10 5.47009e-10 5.29886e-10 5.10801e-10 4.898e-10 4.66983e-10 4.42506e-10 4.16583e-10 3.89476e-10 3.6149e-10 3.32963e-10 3.04254e-10 2.75727e-10 2.47741e-10 2.20634e-10 1.94711e-10 1.70235e-10 1.47418e-10 1.26416e-10 1.07332e-10 9.02083e-11 7.50392e-11 6.17715e-11 5.03137e-11 4.0544e-11 3.23191e-11 2.54822e-11 1.98709e-11 1.53236e-11 1.16851e-11 8.81046e-12 6.56792e-12 4.84053e-12 3.52671e-12 2.54e-12 1.80827e-12 1.27245e-12 8.85013e-13 6.08374e-13 4.13325e-13 2.77523e-13 1.84153e-13 1.20761e-13 7.82572e-14 5.01151e-14 3.17141e-14 1.9832e-14 1.22548e-14 7.48281e-15 4.51481e-15 2.6917e-15 1.5857e-15 9.23047e-16 5.3092e-16 3.01743e-16 1.69451e-16 9.40273e-17 5.1554e-17 2.793e-17 1.49513e-17 7.90842e-18 4.13334e-18 2.1346e-18 1.08927e-18 5.49238e-19 2.73649e-19 1.34721e-19 6.55373e-20 3.1502e-20 1.49596e-20 7.01284e-21 3.2323e-21 1.43448e-21 5.42322e-22 0 
0 1.11197e-21 2.93828e-21 6.61205e-21 1.43252e-20 3.05142e-20 6.41655e-20 1.33304e-19 2.73649e-19 5.55091e-19 1.11264e-18 2.20376e-18 4.31311e-18 8.34127e-18 1.594e-17 3.00993e-17 5.61611e-17 1.03544e-16 1.88637e-16 3.39578e-16 6.04035e-16 1.06169e-15 1.84393e-15 3.1645e-15 5.3664e-15 8.9925e-15 1.48902e-14 2.43639e-14 3.93934e-14 6.29413e-14 9.93779e-14 1.55057e-13 2.39084e-13 3.64313e-13 5.48621e-13 8.16497e-13 1.20097e-12 1.74591e-12 2.50862e-12 3.56277e-12 5.00148e-12 6.94042e-12 9.52075e-12 1.29115e-11 1.73113e-11 2.29486e-11 3.00807e-11 3.89903e-11 4.99802e-11 6.33653e-11 7.94622e-11 9.85761e-11 1.20986e-10 1.46928e-10 1.76581e-10 2.10046e-10 2.47337e-10 2.88364e-10 3.32933e-10 3.80735e-10 4.31358e-10 4.84288e-10 5.38931e-10 5.94628e-10 6.50681e-10 7.06379e-10 7.61022e-10 8.13952e-10 8.64574e-10 9.12377e-10 9.56945e-10 9.97973e-10 1.03526e-09 1.06873e-09 1.09838e-09 1.12432e-09 1.14673e-09 1.16585e-09 1.18194e-09 1.19533e-09 1.20632e-09 1.21523e-09 1.22236e-09 1.228e-09 1.2324e-09 1.23579e-09 1.23837e-09 1.24031e-09 1.24175e-09 1.2428e-09 1.24356e-09 1.24411e-09 1.24449e-09 1.24476e-09 1.24495e-09 1.24507e-09 1.24515e-09 1.24521e-09 1.24525e-09 1.24527e-09 1.24529e-09 1.24529e-09 1.2453e-09 1.2453e-09 1.24531e-09 1.24531e-09 1.24531e-09 1.24531e-09 1.24531e-09 1.24531e-09 1.24531e-09 1.24531e-09 1.24531e-09 1.24531e-09 1.24531e-09 1.24531e-09 1.24531e-09 1.24531e-09 1.24531e-09 1.24531e-09 1.24531e-09 1.24531e-09 1.24531e-09 1.24531e-09 1.24531e-09 1.24531e-09 1.24531e-09 1.24531e-09 1.24531e-09 1.24531e-09 1.24531e-09 1.24531e-09 1.24531e-09 1.24531e-09 1.24531e-09 1.24531e-09 1.24531e-09 1.24531e-09 1.24531e-09 1.24531e-09 1.24531e-09 1.24531e-09 1.24531e-09 1.24531e-09 1.24531e-09 1.24531e-09 1.24531e-09 1.24531e-09 1.24531e-09 1.24531e-09 1.24531e-09 1.24531e-09 1.2453e-09 1.2453e-09 1.24529e-09 1.24529e-09 1.24527e-09 1.24525e-09 1.24521e-09 1.24515e-09 1.24507e-09 1.24495e-09 1.24476e-09 1.24449e-09 1.24411e-09 1.24356e-09 1.2428e-09 1.24175e-09 1.24031e-09 1.23837e-09 1.23579e-09 1.2324e-09 1.228e-09 1.22236e-09 1.21523e-09 1.20632e-09 1.19533e-09 1.18194e-09 1.16585e-09 1.14673e-09 1.12432e-09 1.09838e-09 1.06873e-09 1.03526e-09 9.97973e-10 9.56945e-10 9.12377e-10 8.64574e-10 8.13952e-10 7.61022e-10 7.06379e-10 6.50681e-10 5.94628e-10 5.38931e-10 4.84288e-10 4.31358e-10 3.80735e-10 3.32933e-10 2.88364e-10 2.47337e-10 2.10046e-10 1.76581e-10 1.46928e-10 1.20986e-10 9.85761e-11 7.94622e-11 6.33653e-11 4.99802e-11 3.89903e-11 3.00807e-11 2.29486e-11 1.73113e-11 1.29115e-11 9.52075e-12 6.94042e-12 5.00148e-12 3.56277e-12 2.50862e-12 1.74591e-12 1.20097e-12 8.16497e-13 5.48621e-13 3.64313e-13 2.39084e-13 1.55057e-13 9.93779e-14 6.29413e-14 3.93934e-14 2.43639e-14 1.48902e-14 8.9925e-15 5.3664e-15 3.1645e-15 1.84393e-15 1.06169e-15 6.04035e-16 3.39578e-16 1.88637e-16 1.03544e-16 5.61611e-17 3.00993e-17 1.594e-17 8.34127e-18 4.31311e-18 2.20376e-18 1.11264e-18 5.55091e-19 2.73649e-19 1.33304e-19 6.41655e-20 3.05142e-20 1.43252e-20 6.61205e-21 2.93828e-21 1.11197e-21 0 