<?xml version="1.0"?>
<VTKFile type="ImageData" version="0.1" byte_order="LittleEndian">
  <ImageData WholeExtent="0 255 0 255 0 0" Origin="0 0 0" Spacing="1 1 1">
  <Piece Extent="0 255 0 255 0 0">
    <PointData>
      <DataArray type="Float32" Name="scalar_data" format="ascii" >0 0 0 0 0 0 0 0 0 0 0 0 0 0 0 0 0 0 0 0 0 0 0 0 0 0 0 0 0 0 0 0 0 0 0 0 0 0 0 0 0 0 0 0 0 0 0 0 0 0 0 0 0 0 0 0 0 0 0 0 0 0 0 0 0 0 0 0 0 0 0 0 0 0 0 0 0 0 0 0 0 0 0 0 0 0 0 0 0 0 0 0 0 0 0 0 0 0 0 0 0 0 0 0 0 0 0 0 0 0 0 0 0 0 0 0 0 0 0 0 0 0 0 0 0 0 0 0 0 0 0 0 0 0 0 0 0 0 0 0 0 0 0 0 0 0 0 0 0 0 0 0 0 0 0 0 0 0 0 0 0 0 0 0 0 0 0 0 0 0 0 0 0 0 0 0 0 0 0 0 0 0 0 0 0 0 0 0 0 0 0 0 0 0 0 0 0 0 0 0 0 0 0 0 0 0 0 0 0 0 0 0 0 0 0 0 0 0 0 0 0 0 0 0 0 0 0 0 0 0 0 0 0 0 0 0 0 0 0 0 0 0 0 0 0 0 0 0 0 0 0 0 0 0 0 0 
0 1.15089e-12 2.43376e-12 3.99272e-12 5.99698e-12 8.65548e-12 1.2234e-11 1.70757e-11 2.36268e-11 3.2467e-11 4.43484e-11 6.0242e-11 8.13953e-11 1.09401e-10 1.46284e-10 1.94594e-10 2.57533e-10 3.39088e-10 4.44194e-10 5.78917e-10 7.50668e-10 9.6844e-10 1.24307e-09 1.58751e-09 2.01719e-09 2.55027e-09 3.20807e-09 4.01534e-09 5.00069e-09 6.19685e-09 7.64105e-09 9.37525e-09 1.14464e-08 1.39064e-08 1.68125e-08 2.02269e-08 2.42167e-08 2.88535e-08 3.42129e-08 4.03738e-08 4.74175e-08 5.54266e-08 6.44839e-08 7.46709e-08 8.6066e-08 9.87431e-08 1.12769e-07 1.28204e-07 1.45096e-07 1.63483e-07 1.83386e-07 2.04815e-07 2.27759e-07 2.52193e-07 2.78071e-07 3.05329e-07 3.33884e-07 3.63635e-07 3.94463e-07 4.26232e-07 4.58793e-07 4.91983e-07 5.2563e-07 5.59554e-07 5.93571e-07 6.27495e-07 6.61142e-07 6.94332e-07 7.26893e-07 7.58662e-07 7.8949e-07 8.19241e-07 8.47796e-07 8.75054e-07 9.00932e-07 9.25366e-07 9.4831e-07 9.69739e-07 9.89642e-07 1.00803e-06 1.02492e-06 1.04036e-06 1.05438e-06 1.06706e-06 1.07845e-06 1.08864e-06 1.0977e-06 1.10571e-06 1.11275e-06 1.11891e-06 1.12427e-06 1.12891e-06 1.1329e-06 1.13631e-06 1.13922e-06 1.14168e-06 1.14375e-06 1.14548e-06 1.14693e-06 1.14812e-06 1.14911e-06 1.14992e-06 1.15057e-06 1.15111e-06 1.15154e-06 1.15188e-06 1.15216e-06 1.15237e-06 1.15255e-06 1.15268e-06 1.15279e-06 1.15287e-06 1.15293e-06 1.15298e-06 1.15302e-06 1.15304e-06 1.15306e-06 1.15308e-06 1.15309e-06 1.1531e-06 1.15311e-06 1.15311e-06 1.15312e-06 1.15312e-06 1.15312e-06 1.15312e-06 1.15312e-06 1.15312e-06 1.15312e-06 1.15312e-06 1.15312e-06 1.15312e-06 1.15312e-06 1.15312e-06 1.15311e-06 1.15311e-06 1.1531e-06 1.15309e-06 1.15308e-06 1.15306e-06 1.15304e-06 1.15302e-06 1.15298e-06 1.15293e-06 1.15287e-06 1.15279e-06 1.15268e-06 1.15255e-06 1.15237e-06 1.15216e-06 1.15188e-06 1.15154e-06 1.15111e-06 1.15057e-06 1.14992e-06 1.14911e-06 1.14812e-06 1.14693e-06 1.14548e-06 1.14375e-06 1.14168e-06 1.13922e-06 1.13631e-06 1.1329e-06 1.12891e-06 1.12427e-06 1.11891e-06 1.11275e-06 1.10571e-06 1.0977e-06 1.08864e-06 1.07845e-06 1.06706e-06 1.05438e-06 1.04036e-06 1.02492e-06 1.00803e-06 9.89642e-07 9.69739e-07 9.4831e-07 9.25366e-07 9.00932e-07 8.75054e-07 8.47796e-07 8.19241e-07 7.8949e-07 7.58662e-07 7.26893e-07 6.94332e-07 6.61142e-07 6.27495e-07 5.93571e-07 5.59554e-07 5.2563e-07 4.91983e-07 4.58793e-07 4.26232e-07 3.94463e-07 3.63635e-07 3.33884e-07 3.05329e-07 2.78071e-07 2.52193e-07 2.27759e-07 2.04815e-07 1.83386e-07 1.63483e-07 1.45096e-07 1.28204e-07 1.12769e-07 9.87431e-08 8.6066e-08 7.46709e-08 6.44839e-08 5.54266e-08 4.74175e-08 4.03738e-08 3.42129e-08 2.88535e-08 2.42167e-08 2.02269e-08 1.68125e-08 1.39064e-08 1.14464e-08 9.37525e-09 7.64105e-09 6.19685e-09 5.00069e-09 4.01534e-09 3.20807e-09 2.55027e-09 2.01719e-09 1.58751e-09 1.24307e-09 9.6844e-10 7.50668e-10 5.78917e-10 4.44194e-10 3.39088e-10 2.57533e-10 1.94594e-10 1.46284e-10 1.09401e-10 8.13953e-11 6.0242e-11 4.43484e-11 3.2467e-11 2.36268e-11 1.70757e-11 1.2234e-11 8.65548e-12 5.99698e-12 3.99272e-12 2.43376e-12 1.15089e-12 0 
0 2.43376e-12 5.14651e-12 8.44292e-12 1.26807e-11 1.83014e-11 2.58668e-11 3.61024e-11 4.99509e-11 6.86376e-11 9.37517e-11 1.27345e-10 1.72054e-10 2.31244e-10 3.0919e-10 4.11284e-10 5.44288e-10 7.16624e-10 9.38717e-10 1.22338e-09 1.58628e-09 2.04639e-09 2.62661e-09 3.35432e-09 4.26205e-09 5.38822e-09 6.77781e-09 8.48311e-09 1.05645e-08 1.30912e-08 1.61417e-08 1.98046e-08 2.41791e-08 2.93749e-08 3.55127e-08 4.27239e-08 5.115e-08 6.09424e-08 7.22605e-08 8.5271e-08 1.00146e-07 1.17059e-07 1.36185e-07 1.57696e-07 1.81758e-07 2.08526e-07 2.38144e-07 2.70735e-07 3.06402e-07 3.45224e-07 3.87249e-07 4.32493e-07 4.80938e-07 5.32527e-07 5.87164e-07 6.44716e-07 7.05005e-07 7.67818e-07 8.32905e-07 8.99978e-07 9.68723e-07 1.0388e-06 1.10983e-06 1.18146e-06 1.25328e-06 1.3249e-06 1.39594e-06 1.46601e-06 1.53476e-06 1.60183e-06 1.66692e-06 1.72973e-06 1.79002e-06 1.84757e-06 1.90221e-06 1.9538e-06 2.00224e-06 2.04749e-06 2.08951e-06 2.12833e-06 2.164e-06 2.19659e-06 2.22621e-06 2.25298e-06 2.27704e-06 2.29855e-06 2.31768e-06 2.33459e-06 2.34946e-06 2.36248e-06 2.37379e-06 2.38359e-06 2.39201e-06 2.39922e-06 2.40536e-06 2.41056e-06 2.41493e-06 2.41859e-06 2.42164e-06 2.42417e-06 2.42625e-06 2.42796e-06 2.42935e-06 2.43047e-06 2.43138e-06 2.43211e-06 2.43269e-06 2.43315e-06 2.43351e-06 2.4338e-06 2.43402e-06 2.43419e-06 2.43432e-06 2.43443e-06 2.4345e-06 2.43456e-06 2.43461e-06 2.43464e-06 2.43467e-06 2.43469e-06 2.4347e-06 2.43471e-06 2.43472e-06 2.43472e-06 2.43473e-06 2.43473e-06 2.43473e-06 2.43473e-06 2.43473e-06 2.43473e-06 2.43473e-06 2.43473e-06 2.43472e-06 2.43472e-06 2.43471e-06 2.4347e-06 2.43469e-06 2.43467e-06 2.43464e-06 2.43461e-06 2.43456e-06 2.4345e-06 2.43443e-06 2.43432e-06 2.43419e-06 2.43402e-06 2.4338e-06 2.43351e-06 2.43315e-06 2.43269e-06 2.43211e-06 2.43138e-06 2.43047e-06 2.42935e-06 2.42796e-06 2.42625e-06 2.42417e-06 2.42164e-06 2.41859e-06 2.41493e-06 2.41056e-06 2.40536e-06 2.39922e-06 2.39201e-06 2.38359e-06 2.37379e-06 2.36248e-06 2.34946e-06 2.33459e-06 2.31768e-06 2.29855e-06 2.27704e-06 2.25298e-06 2.22621e-06 2.19659e-06 2.164e-06 2.12833e-06 2.08951e-06 2.04749e-06 2.00224e-06 1.9538e-06 1.90221e-06 1.84757e-06 1.79002e-06 1.72973e-06 1.66692e-06 1.60183e-06 1.53476e-06 1.46601e-06 1.39594e-06 1.3249e-06 1.25328e-06 1.18146e-06 1.10983e-06 1.0388e-06 9.68723e-07 8.99978e-07 8.32905e-07 7.67818e-07 7.05005e-07 6.44716e-07 5.87164e-07 5.32527e-07 4.80938e-07 4.32493e-07 3.87249e-07 3.45224e-07 3.06402e-07 2.70735e-07 2.38144e-07 2.08526e-07 1.81758e-07 1.57696e-07 1.36185e-07 1.17059e-07 1.00146e-07 8.5271e-08 7.22605e-08 6.09424e-08 5.115e-08 4.27239e-08 3.55127e-08 2.93749e-08 2.41791e-08 1.98046e-08 1.61417e-08 1.30912e-08 1.05645e-08 8.48311e-09 6.77781e-09 5.38822e-09 4.26205e-09 3.35432e-09 2.62661e-09 2.04639e-09 1.58628e-09 1.22338e-09 9.38717e-10 7.16624e-10 5.44288e-10 4.11284e-10 3.0919e-10 2.31244e-10 1.72054e-10 1.27345e-10 9.37517e-11 6.86376e-11 4.99509e-11 3.61024e-11 2.58668e-11 1.83014e-11 1.26807e-11 8.44292e-12 5.14651e-12 2.43376e-12 0 
0 3.99272e-12 8.44292e-12 1.38502e-11 2.08009e-11 3.00192e-11 4.24258e-11 5.92099e-11 8.19166e-11 1.12554e-10 1.53727e-10 2.08797e-10 2.82083e-10 3.79102e-10 5.06854e-10 6.74176e-10 8.92142e-10 1.17455e-09 1.53847e-09 2.0049e-09 2.59947e-09 3.35329e-09 4.30382e-09 5.49592e-09 6.98286e-09 8.82752e-09 1.11035e-08 1.38966e-08 1.73054e-08 2.14433e-08 2.64388e-08 3.24371e-08 3.96002e-08 4.8108e-08 5.81578e-08 6.99646e-08 8.37603e-08 9.97923e-08 1.18322e-07 1.39621e-07 1.63971e-07 1.91657e-07 2.22965e-07 2.58177e-07 2.97563e-07 3.41378e-07 3.89855e-07 4.43198e-07 5.01575e-07 5.65113e-07 6.33893e-07 7.07941e-07 7.87225e-07 8.71654e-07 9.61071e-07 1.05526e-06 1.15392e-06 1.25671e-06 1.36323e-06 1.47299e-06 1.58549e-06 1.70016e-06 1.81641e-06 1.93362e-06 2.05115e-06 2.16835e-06 2.28461e-06 2.39928e-06 2.51178e-06 2.62154e-06 2.72805e-06 2.83085e-06 2.92951e-06 3.02369e-06 3.11311e-06 3.19754e-06 3.27683e-06 3.35087e-06 3.41965e-06 3.48319e-06 3.54157e-06 3.59491e-06 3.64339e-06 3.6872e-06 3.72659e-06 3.7618e-06 3.79311e-06 3.8208e-06 3.84515e-06 3.86644e-06 3.88497e-06 3.90101e-06 3.9148e-06 3.92661e-06 3.93666e-06 3.94517e-06 3.95233e-06 3.95833e-06 3.96332e-06 3.96746e-06 3.97087e-06 3.97366e-06 3.97594e-06 3.97778e-06 3.97927e-06 3.98046e-06 3.98141e-06 3.98217e-06 3.98276e-06 3.98323e-06 3.98359e-06 3.98388e-06 3.98409e-06 3.98426e-06 3.98439e-06 3.98448e-06 3.98456e-06 3.98461e-06 3.98465e-06 3.98468e-06 3.98471e-06 3.98472e-06 3.98473e-06 3.98474e-06 3.98475e-06 3.98475e-06 3.98476e-06 3.98476e-06 3.98476e-06 3.98476e-06 3.98475e-06 3.98475e-06 3.98474e-06 3.98473e-06 3.98472e-06 3.98471e-06 3.98468e-06 3.98465e-06 3.98461e-06 3.98456e-06 3.98448e-06 3.98439e-06 3.98426e-06 3.98409e-06 3.98388e-06 3.98359e-06 3.98323e-06 3.98276e-06 3.98217e-06 3.98141e-06 3.98046e-06 3.97927e-06 3.97778e-06 3.97594e-06 3.97366e-06 3.97087e-06 3.96746e-06 3.96332e-06 3.95833e-06 3.95233e-06 3.94517e-06 3.93666e-06 3.92661e-06 3.9148e-06 3.90101e-06 3.88497e-06 3.86644e-06 3.84515e-06 3.8208e-06 3.79311e-06 3.7618e-06 3.72659e-06 3.6872e-06 3.64339e-06 3.59491e-06 3.54157e-06 3.48319e-06 3.41965e-06 3.35087e-06 3.27683e-06 3.19754e-06 3.11311e-06 3.02369e-06 2.92951e-06 2.83085e-06 2.72805e-06 2.62154e-06 2.51178e-06 2.39928e-06 2.28461e-06 2.16835e-06 2.05115e-06 1.93362e-06 1.81641e-06 1.70016e-06 1.58549e-06 1.47299e-06 1.36323e-06 1.25671e-06 1.15392e-06 1.05526e-06 9.61071e-07 8.71654e-07 7.87225e-07 7.07941e-07 6.33893e-07 5.65113e-07 5.01575e-07 4.43198e-07 3.89855e-07 3.41378e-07 2.97563e-07 2.58177e-07 2.22965e-07 1.91657e-07 1.63971e-07 1.39621e-07 1.18322e-07 9.97923e-08 8.37603e-08 6.99646e-08 5.81578e-08 4.8108e-08 3.96002e-08 3.24371e-08 2.64388e-08 2.14433e-08 1.73054e-08 1.38966e-08 1.11035e-08 8.82752e-09 6.98286e-09 5.49592e-09 4.30382e-09 3.35329e-09 2.59947e-09 2.0049e-09 1.53847e-09 1.17455e-09 8.92142e-10 6.74176e-10 5.06854e-10 3.79102e-10 2.82083e-10 2.08797e-10 1.53727e-10 1.12554e-10 8.19166e-11 5.92099e-11 4.24258e-11 3.00192e-11 2.08009e-11 1.38502e-11 8.44292e-12 3.99272e-12 0 
0 5.99698e-12 1.26807e-11 2.08009e-11 3.12379e-11 4.50782e-11 6.37033e-11 8.88976e-11 1.22979e-10 1.68959e-10 2.30746e-10 3.1338e-10 4.23339e-10 5.68893e-10 7.60543e-10 1.01153e-09 1.33846e-09 1.76202e-09 2.30779e-09 3.00724e-09 3.8988e-09 5.02905e-09 6.45417e-09 8.24134e-09 1.04704e-08 1.32355e-08 1.6647e-08 2.08332e-08 2.59421e-08 3.21433e-08 3.96294e-08 4.86177e-08 5.93509e-08 7.20982e-08 8.71553e-08 1.04844e-07 1.25512e-07 1.49528e-07 1.77285e-07 2.09189e-07 2.45662e-07 2.87131e-07 3.34024e-07 3.8676e-07 4.45747e-07 5.11364e-07 5.83962e-07 6.63844e-07 7.51263e-07 8.46409e-07 9.494e-07 1.06028e-06 1.17899e-06 1.30541e-06 1.4393e-06 1.58032e-06 1.72804e-06 1.88195e-06 2.04142e-06 2.20576e-06 2.37419e-06 2.54588e-06 2.71993e-06 2.89541e-06 3.07137e-06 3.24685e-06 3.4209e-06 3.59259e-06 3.76102e-06 3.92536e-06 4.08483e-06 4.23874e-06 4.38647e-06 4.52749e-06 4.66137e-06 4.78779e-06 4.90651e-06 5.01738e-06 5.12038e-06 5.21552e-06 5.30294e-06 5.38282e-06 5.45542e-06 5.52104e-06 5.58002e-06 5.63276e-06 5.67965e-06 5.72112e-06 5.75759e-06 5.7895e-06 5.81726e-06 5.84127e-06 5.86194e-06 5.87963e-06 5.89469e-06 5.90743e-06 5.91817e-06 5.92715e-06 5.93464e-06 5.94084e-06 5.94595e-06 5.95014e-06 5.95355e-06 5.95631e-06 5.95854e-06 5.96033e-06 5.96176e-06 5.96289e-06 5.96378e-06 5.96448e-06 5.96502e-06 5.96545e-06 5.96577e-06 5.96602e-06 5.96622e-06 5.96636e-06 5.96647e-06 5.96655e-06 5.96661e-06 5.96666e-06 5.96669e-06 5.96672e-06 5.96674e-06 5.96675e-06 5.96676e-06 5.96676e-06 5.96677e-06 5.96677e-06 5.96677e-06 5.96677e-06 5.96676e-06 5.96676e-06 5.96675e-06 5.96674e-06 5.96672e-06 5.96669e-06 5.96666e-06 5.96661e-06 5.96655e-06 5.96647e-06 5.96636e-06 5.96622e-06 5.96602e-06 5.96577e-06 5.96545e-06 5.96502e-06 5.96448e-06 5.96378e-06 5.96289e-06 5.96176e-06 5.96033e-06 5.95854e-06 5.95631e-06 5.95355e-06 5.95014e-06 5.94595e-06 5.94084e-06 5.93464e-06 5.92715e-06 5.91817e-06 5.90743e-06 5.89469e-06 5.87963e-06 5.86194e-06 5.84127e-06 5.81726e-06 5.7895e-06 5.75759e-06 5.72112e-06 5.67965e-06 5.63276e-06 5.58002e-06 5.52104e-06 5.45542e-06 5.38282e-06 5.30294e-06 5.21552e-06 5.12038e-06 5.01738e-06 4.90651e-06 4.78779e-06 4.66137e-06 4.52749e-06 4.38647e-06 4.23874e-06 4.08483e-06 3.92536e-06 3.76102e-06 3.59259e-06 3.4209e-06 3.24685e-06 3.07137e-06 2.89541e-06 2.71993e-06 2.54588e-06 2.37419e-06 2.20576e-06 2.04142e-06 1.88195e-06 1.72804e-06 1.58032e-06 1.4393e-06 1.30541e-06 1.17899e-06 1.06028e-06 9.494e-07 8.46409e-07 7.51263e-07 6.63844e-07 5.83962e-07 5.11364e-07 4.45747e-07 3.8676e-07 3.34024e-07 2.87131e-07 2.45662e-07 2.09189e-07 1.77285e-07 1.49528e-07 1.25512e-07 1.04844e-07 8.71553e-08 7.20982e-08 5.93509e-08 4.86177e-08 3.96294e-08 3.21433e-08 2.59421e-08 2.08332e-08 1.6647e-08 1.32355e-08 1.04704e-08 8.24134e-09 6.45417e-09 5.02905e-09 3.8988e-09 3.00724e-09 2.30779e-09 1.76202e-09 1.33846e-09 1.01153e-09 7.60543e-10 5.68893e-10 4.23339e-10 3.1338e-10 2.30746e-10 1.68959e-10 1.22979e-10 8.88976e-11 6.37033e-11 4.50782e-11 3.12379e-11 2.08009e-11 1.26807e-11 5.99698e-12 0 
0 8.65548e-12 1.83014e-11 3.00192e-11 4.50782e-11 6.50448e-11 9.19111e-11 1.28249e-10 1.77399e-10 2.43703e-10 3.32789e-10 4.51922e-10 6.10435e-10 8.20241e-10 1.09646e-09 1.45818e-09 1.9293e-09 2.5396e-09 3.32594e-09 4.33362e-09 5.61794e-09 7.24599e-09 9.29862e-09 1.18725e-08 1.50826e-08 1.90643e-08 2.39766e-08 3.00038e-08 3.73591e-08 4.62864e-08 5.70628e-08 7.00008e-08 8.54496e-08 1.03796e-07 1.25466e-07 1.50922e-07 1.80663e-07 2.15222e-07 2.55161e-07 3.01066e-07 3.53541e-07 4.13202e-07 4.80663e-07 5.56529e-07 6.41382e-07 7.35771e-07 8.40197e-07 9.55097e-07 1.08083e-06 1.21768e-06 1.36581e-06 1.52528e-06 1.69601e-06 1.87782e-06 2.07037e-06 2.27317e-06 2.48561e-06 2.70694e-06 2.93626e-06 3.17259e-06 3.4148e-06 3.66169e-06 3.91197e-06 4.16431e-06 4.41734e-06 4.66969e-06 4.91997e-06 5.16685e-06 5.40906e-06 5.64539e-06 5.87472e-06 6.09605e-06 6.30849e-06 6.51129e-06 6.70383e-06 6.88564e-06 7.05638e-06 7.21584e-06 7.36397e-06 7.50082e-06 7.62656e-06 7.74146e-06 7.84588e-06 7.94027e-06 8.02513e-06 8.10099e-06 8.16845e-06 8.22811e-06 8.28059e-06 8.32649e-06 8.36643e-06 8.40099e-06 8.43073e-06 8.45619e-06 8.47786e-06 8.49621e-06 8.51165e-06 8.52459e-06 8.53537e-06 8.5443e-06 8.55165e-06 8.55768e-06 8.56259e-06 8.56657e-06 8.56978e-06 8.57236e-06 8.57441e-06 8.57604e-06 8.57732e-06 8.57833e-06 8.57912e-06 8.57973e-06 8.5802e-06 8.58056e-06 8.58084e-06 8.58105e-06 8.5812e-06 8.58132e-06 8.58141e-06 8.58148e-06 8.58153e-06 8.58156e-06 8.58159e-06 8.5816e-06 8.58162e-06 8.58163e-06 8.58163e-06 8.58163e-06 8.58163e-06 8.58163e-06 8.58163e-06 8.58162e-06 8.5816e-06 8.58159e-06 8.58156e-06 8.58153e-06 8.58148e-06 8.58141e-06 8.58132e-06 8.5812e-06 8.58105e-06 8.58084e-06 8.58056e-06 8.5802e-06 8.57973e-06 8.57912e-06 8.57833e-06 8.57732e-06 8.57604e-06 8.57441e-06 8.57236e-06 8.56978e-06 8.56657e-06 8.56259e-06 8.55768e-06 8.55165e-06 8.5443e-06 8.53537e-06 8.52459e-06 8.51165e-06 8.49621e-06 8.47786e-06 8.45619e-06 8.43073e-06 8.40099e-06 8.36643e-06 8.32649e-06 8.28059e-06 8.22811e-06 8.16845e-06 8.10099e-06 8.02513e-06 7.94027e-06 7.84588e-06 7.74146e-06 7.62656e-06 7.50082e-06 7.36397e-06 7.21584e-06 7.05638e-06 6.88564e-06 6.70383e-06 6.51129e-06 6.30849e-06 6.09605e-06 5.87472e-06 5.64539e-06 5.40906e-06 5.16685e-06 4.91997e-06 4.66969e-06 4.41734e-06 4.16431e-06 3.91197e-06 3.66169e-06 3.4148e-06 3.17259e-06 2.93626e-06 2.70694e-06 2.48561e-06 2.27317e-06 2.07037e-06 1.87782e-06 1.69601e-06 1.52528e-06 1.36581e-06 1.21768e-06 1.08083e-06 9.55097e-07 8.40197e-07 7.35771e-07 6.41382e-07 5.56529e-07 4.80663e-07 4.13202e-07 3.53541e-07 3.01066e-07 2.55161e-07 2.15222e-07 1.80663e-07 1.50922e-07 1.25466e-07 1.03796e-07 8.54496e-08 7.00008e-08 5.70628e-08 4.62864e-08 3.73591e-08 3.00038e-08 2.39766e-08 1.90643e-08 1.50826e-08 1.18725e-08 9.29862e-09 7.24599e-09 5.61794e-09 4.33362e-09 3.32594e-09 2.5396e-09 1.9293e-09 1.45818e-09 1.09646e-09 8.20241e-10 6.10435e-10 4.51922e-10 3.32789e-10 2.43703e-10 1.77399e-10 1.28249e-10 9.19111e-11 6.50448e-11 4.50782e-11 3.00192e-11 1.83014e-11 8.65548e-12 0 
0 1.2234e-11 2.58668e-11 4.24258e-11 6.37033e-11 9.19111e-11 1.29861e-10 1.81184e-10 2.50594e-10 3.44218e-10 4.69997e-10 6.38183e-10 8.61937e-10 1.15807e-09 1.5479e-09 2.05834e-09 2.7231e-09 3.58418e-09 4.69351e-09 6.11497e-09 7.92652e-09 1.02227e-08 1.31175e-08 1.67471e-08 2.12734e-08 2.68874e-08 3.38128e-08 4.23095e-08 5.26777e-08 6.52608e-08 8.04493e-08 9.86831e-08 1.20454e-07 1.46307e-07 1.76842e-07 2.12709e-07 2.54611e-07 3.03298e-07 3.59562e-07 4.24227e-07 4.98145e-07 5.8218e-07 6.77197e-07 7.84048e-07 9.03553e-07 1.03648e-06 1.18354e-06 1.34534e-06 1.5224e-06 1.7151e-06 1.92368e-06 2.14821e-06 2.38861e-06 2.6446e-06 2.91569e-06 3.20121e-06 3.50031e-06 3.81191e-06 4.13478e-06 4.46749e-06 4.80848e-06 5.15605e-06 5.5084e-06 5.86365e-06 6.21987e-06 6.57512e-06 6.92747e-06 7.27504e-06 7.61603e-06 7.94874e-06 8.27161e-06 8.58321e-06 8.8823e-06 9.16783e-06 9.43892e-06 9.6949e-06 9.9353e-06 1.01598e-05 1.03684e-05 1.05611e-05 1.07382e-05 1.09e-05 1.1047e-05 1.118e-05 1.12995e-05 1.14063e-05 1.15013e-05 1.15854e-05 1.16593e-05 1.1724e-05 1.17802e-05 1.18289e-05 1.18708e-05 1.19067e-05 1.19372e-05 1.19631e-05 1.19848e-05 1.20031e-05 1.20183e-05 1.20308e-05 1.20412e-05 1.20497e-05 1.20566e-05 1.20622e-05 1.20668e-05 1.20704e-05 1.20733e-05 1.20756e-05 1.20774e-05 1.20788e-05 1.20799e-05 1.20808e-05 1.20815e-05 1.2082e-05 1.20824e-05 1.20827e-05 1.20829e-05 1.2083e-05 1.20832e-05 1.20833e-05 1.20833e-05 1.20834e-05 1.20834e-05 1.20834e-05 1.20835e-05 1.20835e-05 1.20835e-05 1.20835e-05 1.20835e-05 1.20835e-05 1.20835e-05 1.20835e-05 1.20834e-05 1.20834e-05 1.20834e-05 1.20833e-05 1.20833e-05 1.20832e-05 1.2083e-05 1.20829e-05 1.20827e-05 1.20824e-05 1.2082e-05 1.20815e-05 1.20808e-05 1.20799e-05 1.20788e-05 1.20774e-05 1.20756e-05 1.20733e-05 1.20704e-05 1.20668e-05 1.20622e-05 1.20566e-05 1.20497e-05 1.20412e-05 1.20308e-05 1.20183e-05 1.20031e-05 1.19848e-05 1.19631e-05 1.19372e-05 1.19067e-05 1.18708e-05 1.18289e-05 1.17802e-05 1.1724e-05 1.16593e-05 1.15854e-05 1.15013e-05 1.14063e-05 1.12995e-05 1.118e-05 1.1047e-05 1.09e-05 1.07382e-05 1.05611e-05 1.03684e-05 1.01598e-05 9.9353e-06 9.6949e-06 9.43892e-06 9.16783e-06 8.8823e-06 8.58321e-06 8.27161e-06 7.94874e-06 7.61603e-06 7.27504e-06 6.92747e-06 6.57512e-06 6.21987e-06 5.86365e-06 5.5084e-06 5.15605e-06 4.80848e-06 4.46749e-06 4.13478e-06 3.81191e-06 3.50031e-06 3.20121e-06 2.91569e-06 2.6446e-06 2.38861e-06 2.14821e-06 1.92368e-06 1.7151e-06 1.5224e-06 1.34534e-06 1.18354e-06 1.03648e-06 9.03553e-07 7.84048e-07 6.77197e-07 5.8218e-07 4.98145e-07 4.24227e-07 3.59562e-07 3.03298e-07 2.54611e-07 2.12709e-07 1.76842e-07 1.46307e-07 1.20454e-07 9.86831e-08 8.04493e-08 6.52608e-08 5.26777e-08 4.23095e-08 3.38128e-08 2.68874e-08 2.12734e-08 1.67471e-08 1.31175e-08 1.02227e-08 7.92652e-09 6.11497e-09 4.69351e-09 3.58418e-09 2.7231e-09 2.05834e-09 1.5479e-09 1.15807e-09 8.61937e-10 6.38183e-10 4.69997e-10 3.44218e-10 2.50594e-10 1.81184e-10 1.29861e-10 9.19111e-11 6.37033e-11 4.24258e-11 2.58668e-11 1.2234e-11 0 
0 1.70757e-11 3.61024e-11 5.921e-11 8.88976e-11 1.28249e-10 1.81184e-10 2.52762e-10 3.49554e-10 4.80097e-10 6.55455e-10 8.89908e-10 1.20179e-09 1.61451e-09 2.15777e-09 2.86902e-09 3.79523e-09 4.99483e-09 6.54015e-09 8.52008e-09 1.10431e-08 1.42409e-08 1.82718e-08 2.33256e-08 2.96275e-08 3.74431e-08 4.70835e-08 5.89104e-08 7.33411e-08 9.08535e-08 1.1199e-07 1.37363e-07 1.67656e-07 2.03627e-07 2.46108e-07 2.96006e-07 3.54296e-07 4.22021e-07 5.0028e-07 5.90221e-07 6.93026e-07 8.09896e-07 9.42033e-07 1.09062e-06 1.2568e-06 1.44163e-06 1.64611e-06 1.87108e-06 2.11725e-06 2.38516e-06 2.67513e-06 2.98728e-06 3.32148e-06 3.67733e-06 4.05418e-06 4.45109e-06 4.86685e-06 5.29999e-06 5.74878e-06 6.21125e-06 6.68522e-06 7.16834e-06 7.6581e-06 8.15189e-06 8.64702e-06 9.14081e-06 9.63057e-06 1.01137e-05 1.05877e-05 1.10501e-05 1.14989e-05 1.19321e-05 1.23478e-05 1.27447e-05 1.31216e-05 1.34774e-05 1.38116e-05 1.41238e-05 1.44138e-05 1.46817e-05 1.49278e-05 1.51528e-05 1.53573e-05 1.55421e-05 1.57083e-05 1.58569e-05 1.5989e-05 1.61059e-05 1.62087e-05 1.62986e-05 1.63769e-05 1.64446e-05 1.65029e-05 1.65528e-05 1.65953e-05 1.66313e-05 1.66616e-05 1.66869e-05 1.67081e-05 1.67256e-05 1.674e-05 1.67518e-05 1.67615e-05 1.67693e-05 1.67756e-05 1.67806e-05 1.67847e-05 1.67879e-05 1.67904e-05 1.67924e-05 1.67939e-05 1.67951e-05 1.6796e-05 1.67968e-05 1.67973e-05 1.67977e-05 1.6798e-05 1.67983e-05 1.67984e-05 1.67986e-05 1.67987e-05 1.67987e-05 1.67988e-05 1.67988e-05 1.67988e-05 1.67989e-05 1.67989e-05 1.67989e-05 1.67989e-05 1.67989e-05 1.67989e-05 1.67988e-05 1.67988e-05 1.67988e-05 1.67987e-05 1.67987e-05 1.67986e-05 1.67984e-05 1.67983e-05 1.6798e-05 1.67977e-05 1.67973e-05 1.67968e-05 1.6796e-05 1.67951e-05 1.67939e-05 1.67924e-05 1.67904e-05 1.67879e-05 1.67847e-05 1.67806e-05 1.67756e-05 1.67693e-05 1.67615e-05 1.67518e-05 1.674e-05 1.67256e-05 1.67081e-05 1.66869e-05 1.66616e-05 1.66313e-05 1.65953e-05 1.65528e-05 1.65029e-05 1.64446e-05 1.63769e-05 1.62986e-05 1.62087e-05 1.61059e-05 1.5989e-05 1.58569e-05 1.57083e-05 1.55421e-05 1.53573e-05 1.51528e-05 1.49278e-05 1.46817e-05 1.44138e-05 1.41238e-05 1.38116e-05 1.34774e-05 1.31216e-05 1.27447e-05 1.23478e-05 1.19321e-05 1.14989e-05 1.10501e-05 1.05877e-05 1.01137e-05 9.63057e-06 9.14081e-06 8.64702e-06 8.15189e-06 7.6581e-06 7.16834e-06 6.68522e-06 6.21125e-06 5.74878e-06 5.29999e-06 4.86685e-06 4.45109e-06 4.05418e-06 3.67733e-06 3.32148e-06 2.98728e-06 2.67513e-06 2.38516e-06 2.11725e-06 1.87108e-06 1.64611e-06 1.44163e-06 1.2568e-06 1.09062e-06 9.42033e-07 8.09896e-07 6.93026e-07 5.90221e-07 5.0028e-07 4.22021e-07 3.54296e-07 2.96006e-07 2.46108e-07 2.03627e-07 1.67656e-07 1.37363e-07 1.1199e-07 9.08535e-08 7.33411e-08 5.89104e-08 4.70835e-08 3.74431e-08 2.96275e-08 2.33256e-08 1.82718e-08 1.42409e-08 1.10431e-08 8.52008e-09 6.54015e-09 4.99483e-09 3.79523e-09 2.86902e-09 2.15777e-09 1.61451e-09 1.20179e-09 8.89908e-10 6.55455e-10 4.80097e-10 3.49554e-10 2.52762e-10 1.81184e-10 1.28249e-10 8.88976e-11 5.921e-11 3.61024e-11 1.70757e-11 0 
0 2.36268e-11 4.99509e-11 8.19166e-11 1.22979e-10 1.77399e-10 2.50594e-10 3.49554e-10 4.83357e-10 6.63794e-10 9.06146e-10 1.23013e-09 1.66107e-09 2.23127e-09 2.98175e-09 3.9642e-09 5.24342e-09 6.90008e-09 9.03397e-09 1.17677e-08 1.52511e-08 1.96655e-08 2.52297e-08 3.22051e-08 4.09025e-08 5.1688e-08 6.49908e-08 8.13095e-08 1.01219e-07 1.25379e-07 1.54537e-07 1.89536e-07 2.31318e-07 2.80929e-07 3.39515e-07 4.08325e-07 4.88703e-07 5.82086e-07 6.89989e-07 8.13991e-07 9.55721e-07 1.11683e-06 1.29899e-06 1.50381e-06 1.73286e-06 1.98763e-06 2.26945e-06 2.57951e-06 2.91877e-06 3.28798e-06 3.6876e-06 4.11776e-06 4.57828e-06 5.06864e-06 5.58791e-06 6.13482e-06 6.7077e-06 7.30451e-06 7.92287e-06 8.56008e-06 9.21314e-06 9.87879e-06 1.05536e-05 1.12339e-05 1.19161e-05 1.25965e-05 1.32713e-05 1.39369e-05 1.459e-05 1.52272e-05 1.58455e-05 1.64423e-05 1.70152e-05 1.75621e-05 1.80814e-05 1.85718e-05 1.90323e-05 1.94624e-05 1.98621e-05 2.02313e-05 2.05705e-05 2.08806e-05 2.11624e-05 2.14172e-05 2.16462e-05 2.18511e-05 2.20332e-05 2.21943e-05 2.23361e-05 2.24601e-05 2.2568e-05 2.26613e-05 2.27417e-05 2.28105e-05 2.28691e-05 2.29187e-05 2.29605e-05 2.29955e-05 2.30247e-05 2.30488e-05 2.30687e-05 2.30851e-05 2.30984e-05 2.31091e-05 2.31178e-05 2.31248e-05 2.31304e-05 2.31348e-05 2.31383e-05 2.3141e-05 2.31431e-05 2.31448e-05 2.31461e-05 2.31471e-05 2.31478e-05 2.31484e-05 2.31488e-05 2.31491e-05 2.31494e-05 2.31496e-05 2.31497e-05 2.31498e-05 2.31499e-05 2.31499e-05 2.31499e-05 2.315e-05 2.315e-05 2.315e-05 2.315e-05 2.315e-05 2.315e-05 2.31499e-05 2.31499e-05 2.31499e-05 2.31498e-05 2.31497e-05 2.31496e-05 2.31494e-05 2.31491e-05 2.31488e-05 2.31484e-05 2.31478e-05 2.31471e-05 2.31461e-05 2.31448e-05 2.31431e-05 2.3141e-05 2.31383e-05 2.31348e-05 2.31304e-05 2.31248e-05 2.31178e-05 2.31091e-05 2.30984e-05 2.30851e-05 2.30687e-05 2.30488e-05 2.30247e-05 2.29955e-05 2.29605e-05 2.29187e-05 2.28691e-05 2.28105e-05 2.27417e-05 2.26613e-05 2.2568e-05 2.24601e-05 2.23361e-05 2.21943e-05 2.20332e-05 2.18511e-05 2.16462e-05 2.14172e-05 2.11624e-05 2.08806e-05 2.05705e-05 2.02313e-05 1.98621e-05 1.94624e-05 1.90323e-05 1.85718e-05 1.80814e-05 1.75621e-05 1.70152e-05 1.64423e-05 1.58455e-05 1.52272e-05 1.459e-05 1.39369e-05 1.32713e-05 1.25965e-05 1.19161e-05 1.12339e-05 1.05536e-05 9.87879e-06 9.21314e-06 8.56008e-06 7.92287e-06 7.30451e-06 6.7077e-06 6.13482e-06 5.58791e-06 5.06864e-06 4.57828e-06 4.11776e-06 3.6876e-06 3.28798e-06 2.91877e-06 2.57951e-06 2.26945e-06 1.98763e-06 1.73286e-06 1.50381e-06 1.29899e-06 1.11683e-06 9.55721e-07 8.13991e-07 6.89989e-07 5.82086e-07 4.88703e-07 4.08325e-07 3.39515e-07 2.80929e-07 2.31318e-07 1.89536e-07 1.54537e-07 1.25379e-07 1.01219e-07 8.13095e-08 6.49908e-08 5.1688e-08 4.09025e-08 3.22051e-08 2.52297e-08 1.96655e-08 1.52511e-08 1.17677e-08 9.03397e-09 6.90008e-09 5.24342e-09 3.9642e-09 2.98175e-09 2.23127e-09 1.66107e-09 1.23013e-09 9.06146e-10 6.63794e-10 4.83357e-10 3.49554e-10 2.50594e-10 1.77399e-10 1.22979e-10 8.19166e-11 4.99509e-11 2.36268e-11 0 
0 3.2467e-11 6.86376e-11 1.12554e-10 1.68959e-10 2.43703e-10 3.44218e-10 4.80097e-10 6.63794e-10 9.11484e-10 1.24413e-09 1.68877e-09 2.28012e-09 3.0625e-09 4.09211e-09 5.43985e-09 7.19452e-09 9.46669e-09 1.23931e-08 1.61418e-08 2.09179e-08 2.69702e-08 3.45981e-08 4.41598e-08 5.60808e-08 7.08628e-08 8.90933e-08 1.11455e-07 1.38736e-07 1.71837e-07 2.11783e-07 2.59729e-07 3.16964e-07 3.84917e-07 4.65159e-07 5.59397e-07 6.69473e-07 7.97351e-07 9.45104e-07 1.11489e-06 1.30895e-06 1.52953e-06 1.7789e-06 2.05929e-06 2.37285e-06 2.72159e-06 3.10735e-06 3.53174e-06 3.9961e-06 4.50143e-06 5.04834e-06 5.63705e-06 6.26731e-06 6.93837e-06 7.64898e-06 8.3974e-06 9.18135e-06 9.99803e-06 1.08442e-05 1.17161e-05 1.26098e-05 1.35206e-05 1.44439e-05 1.53749e-05 1.63084e-05 1.72393e-05 1.81627e-05 1.90735e-05 1.99671e-05 2.08391e-05 2.16852e-05 2.25019e-05 2.32858e-05 2.40343e-05 2.47449e-05 2.54159e-05 2.60462e-05 2.66349e-05 2.71818e-05 2.76871e-05 2.81515e-05 2.85759e-05 2.89617e-05 2.93104e-05 2.9624e-05 2.99043e-05 3.01537e-05 3.03743e-05 3.05684e-05 3.07381e-05 3.08859e-05 3.10138e-05 3.11239e-05 3.12181e-05 3.12983e-05 3.13663e-05 3.14235e-05 3.14715e-05 3.15114e-05 3.15445e-05 3.15718e-05 3.15942e-05 3.16124e-05 3.16272e-05 3.16391e-05 3.16487e-05 3.16563e-05 3.16623e-05 3.16671e-05 3.16709e-05 3.16738e-05 3.16761e-05 3.16778e-05 3.16792e-05 3.16802e-05 3.1681e-05 3.16816e-05 3.1682e-05 3.16823e-05 3.16826e-05 3.16828e-05 3.16829e-05 3.1683e-05 3.16831e-05 3.16831e-05 3.16831e-05 3.16832e-05 3.16832e-05 3.16832e-05 3.16832e-05 3.16831e-05 3.16831e-05 3.16831e-05 3.1683e-05 3.16829e-05 3.16828e-05 3.16826e-05 3.16823e-05 3.1682e-05 3.16816e-05 3.1681e-05 3.16802e-05 3.16792e-05 3.16778e-05 3.16761e-05 3.16738e-05 3.16709e-05 3.16671e-05 3.16623e-05 3.16563e-05 3.16487e-05 3.16391e-05 3.16272e-05 3.16124e-05 3.15942e-05 3.15718e-05 3.15445e-05 3.15114e-05 3.14715e-05 3.14235e-05 3.13663e-05 3.12983e-05 3.12181e-05 3.11239e-05 3.10138e-05 3.08859e-05 3.07381e-05 3.05684e-05 3.03743e-05 3.01537e-05 2.99043e-05 2.9624e-05 2.93104e-05 2.89617e-05 2.85759e-05 2.81515e-05 2.76871e-05 2.71818e-05 2.66349e-05 2.60462e-05 2.54159e-05 2.47449e-05 2.40343e-05 2.32858e-05 2.25019e-05 2.16852e-05 2.08391e-05 1.99671e-05 1.90735e-05 1.81627e-05 1.72393e-05 1.63084e-05 1.53749e-05 1.44439e-05 1.35206e-05 1.26098e-05 1.17161e-05 1.08442e-05 9.99803e-06 9.18135e-06 8.3974e-06 7.64898e-06 6.93837e-06 6.26731e-06 5.63705e-06 5.04834e-06 4.50143e-06 3.9961e-06 3.53174e-06 3.10735e-06 2.72159e-06 2.37285e-06 2.05929e-06 1.7789e-06 1.52953e-06 1.30895e-06 1.11489e-06 9.45104e-07 7.97351e-07 6.69473e-07 5.59397e-07 4.65159e-07 3.84917e-07 3.16964e-07 2.59729e-07 2.11783e-07 1.71837e-07 1.38736e-07 1.11455e-07 8.90933e-08 7.08628e-08 5.60808e-08 4.41598e-08 3.45981e-08 2.69702e-08 2.09179e-08 1.61418e-08 1.23931e-08 9.46669e-09 7.19452e-09 5.43985e-09 4.09211e-09 3.0625e-09 2.28012e-09 1.68877e-09 1.24413e-09 9.11484e-10 6.63794e-10 4.80097e-10 3.44218e-10 2.43703e-10 1.68959e-10 1.12554e-10 6.86376e-11 3.2467e-11 0 