<?xml version="1.0"?>
<VTKFile type="ImageData" version="0.1" byte_order="LittleEndian">
  <ImageData WholeExtent="0 255 0 255 0 0" Origin="0 0 0" Spacing="1 1 1">
  <Piece Extent="0 255 0 255 0 0">
    <PointData>
      <DataArray type="Float32" Name="scalar_data" format="ascii" >0 0 0 0 0 0 0 0 0 0 0 0 0 0 0 0 0 0 0 0 0 0 0 0 0 0 0 0 0 0 0 0 0 0 0 0 0 0 0 0 0 0 0 0 0 0 0 0 0 0 0 0 0 0 0 0 0 0 0 0 0 0 0 0 0 0 0 0 0 0 0 0 0 0 0 0 0 0 0 0 0 0 0 0 0 0 0 0 0 0 0 0 0 0 0 0 0 0 0 0 0 0 0 0 0 0 0 0 0 0 0 0 0 0 0 0 0 0 0 0 0 0 0 0 0 0 0 0 0 0 0 0 0 0 0 0 0 0 0 0 0 0 0 0 0 0 0 0 0 0 0 0 0 0 0 0 0 0 0 0 0 0 0 0 0 0 0 0 0 0 0 0 0 0 0 0 0 0 0 0 0 0 0 0 0 0 0 0 0 0 0 0 0 0 0 0 0 0 0 0 0 0 0 0 0 0 0 0 0 0 0 0 0 0 0 0 0 0 0 0 0 0 0 0 0 0 0 0 0 0 0 0 0 0 0 0 0 0 0 0 0 0 0 0 0 0 0 0 0 0 0 0 0 0 0 0 
0 1.57831e-10 3.25932e-10 5.15067e-10 7.36994e-10 1.005e-09 1.33447e-09 1.74353e-09 2.2537e-09 2.89072e-09 3.68534e-09 4.67435e-09 5.90161e-09 7.41927e-09 9.28904e-09 1.15837e-08 1.43884e-08 1.7803e-08 2.19429e-08 2.69416e-08 3.29527e-08 4.01513e-08 4.87366e-08 5.89333e-08 7.09942e-08 8.52009e-08 1.01866e-07 1.21335e-07 1.43986e-07 1.70228e-07 2.00507e-07 2.35298e-07 2.75109e-07 3.20477e-07 3.71962e-07 4.30149e-07 4.95638e-07 5.6904e-07 6.50971e-07 7.42044e-07 8.42861e-07 9.54002e-07 1.07602e-06 1.20942e-06 1.35466e-06 1.51214e-06 1.68219e-06 1.86505e-06 2.06086e-06 2.26968e-06 2.49145e-06 2.726e-06 2.97304e-06 3.23216e-06 3.50281e-06 3.78435e-06 4.076e-06 4.37687e-06 4.68596e-06 5.0022e-06 5.32439e-06 5.6513e-06 5.98162e-06 6.314e-06 6.64707e-06 6.97945e-06 7.30977e-06 7.63668e-06 7.95887e-06 8.2751e-06 8.5842e-06 8.88507e-06 9.17671e-06 9.45825e-06 9.72891e-06 9.98802e-06 1.02351e-05 1.04696e-05 1.06914e-05 1.09002e-05 1.1096e-05 1.12789e-05 1.14489e-05 1.16064e-05 1.17516e-05 1.1885e-05 1.20071e-05 1.21182e-05 1.2219e-05 1.23101e-05 1.2392e-05 1.24654e-05 1.25309e-05 1.25891e-05 1.26406e-05 1.2686e-05 1.27258e-05 1.27606e-05 1.27908e-05 1.28171e-05 1.28397e-05 1.28592e-05 1.28759e-05 1.28901e-05 1.29021e-05 1.29123e-05 1.29209e-05 1.29281e-05 1.29341e-05 1.29391e-05 1.29433e-05 1.29467e-05 1.29495e-05 1.29518e-05 1.29536e-05 1.29552e-05 1.29564e-05 1.29574e-05 1.29581e-05 1.29588e-05 1.29593e-05 1.29596e-05 1.29599e-05 1.29602e-05 1.29603e-05 1.29605e-05 1.29605e-05 1.29606e-05 1.29606e-05 1.29605e-05 1.29605e-05 1.29603e-05 1.29602e-05 1.29599e-05 1.29596e-05 1.29593e-05 1.29588e-05 1.29581e-05 1.29574e-05 1.29564e-05 1.29552e-05 1.29536e-05 1.29518e-05 1.29495e-05 1.29467e-05 1.29433e-05 1.29391e-05 1.29341e-05 1.29281e-05 1.29209e-05 1.29123e-05 1.29021e-05 1.28901e-05 1.28759e-05 1.28592e-05 1.28397e-05 1.28171e-05 1.27908e-05 1.27606e-05 1.27258e-05 1.2686e-05 1.26406e-05 1.25891e-05 1.25309e-05 1.24654e-05 1.2392e-05 1.23101e-05 1.2219e-05 1.21182e-05 1.20071e-05 1.1885e-05 1.17516e-05 1.16064e-05 1.14489e-05 1.12789e-05 1.1096e-05 1.09002e-05 1.06914e-05 1.04696e-05 1.02351e-05 9.98802e-06 9.72891e-06 9.45825e-06 9.17671e-06 8.88507e-06 8.5842e-06 8.2751e-06 7.95887e-06 7.63668e-06 7.30977e-06 6.97945e-06 6.64707e-06 6.314e-06 5.98162e-06 5.6513e-06 5.32439e-06 5.0022e-06 4.68596e-06 4.37687e-06 4.076e-06 3.78435e-06 3.50281e-06 3.23216e-06 2.97304e-06 2.726e-06 2.49145e-06 2.26968e-06 2.06086e-06 1.86505e-06 1.68219e-06 1.51214e-06 1.35466e-06 1.20942e-06 1.07602e-06 9.54002e-07 8.42861e-07 7.42044e-07 6.50971e-07 5.6904e-07 4.95638e-07 4.30149e-07 3.71962e-07 3.20477e-07 2.75109e-07 2.35298e-07 2.00507e-07 1.70228e-07 1.43986e-07 1.21335e-07 1.01866e-07 8.52009e-08 7.09942e-08 5.89333e-08 4.87366e-08 4.01513e-08 3.29527e-08 2.69416e-08 2.19429e-08 1.7803e-08 1.43884e-08 1.15837e-08 9.28904e-09 7.41927e-09 5.90161e-09 4.67435e-09 3.68534e-09 2.89072e-09 2.2537e-09 1.74353e-09 1.33447e-09 1.005e-09 7.36994e-10 5.15067e-10 3.25932e-10 1.57831e-10 0 
0 3.25932e-10 6.73072e-10 1.06364e-09 1.52192e-09 2.07534e-09 2.75567e-09 3.60032e-09 4.65374e-09 5.96904e-09 7.60974e-09 9.65179e-09 1.21857e-08 1.53192e-08 1.91796e-08 2.39171e-08 2.97078e-08 3.67573e-08 4.53043e-08 5.56243e-08 6.8034e-08 8.28953e-08 1.00619e-07 1.21669e-07 1.46568e-07 1.75896e-07 2.10299e-07 2.50489e-07 2.97246e-07 3.51418e-07 4.13921e-07 4.85738e-07 5.67918e-07 6.61566e-07 7.67842e-07 8.8795e-07 1.02313e-06 1.17464e-06 1.34376e-06 1.53174e-06 1.73984e-06 1.96924e-06 2.22109e-06 2.49644e-06 2.79622e-06 3.12128e-06 3.47226e-06 3.84968e-06 4.25384e-06 4.68484e-06 5.14258e-06 5.62669e-06 6.13657e-06 6.67138e-06 7.23e-06 7.81109e-06 8.41304e-06 9.03402e-06 9.67197e-06 1.03247e-05 1.09896e-05 1.16644e-05 1.23461e-05 1.30321e-05 1.37196e-05 1.44056e-05 1.50873e-05 1.57621e-05 1.6427e-05 1.70797e-05 1.77177e-05 1.83387e-05 1.89406e-05 1.95217e-05 2.00803e-05 2.06151e-05 2.1125e-05 2.16091e-05 2.20669e-05 2.24979e-05 2.2902e-05 2.32794e-05 2.36304e-05 2.39555e-05 2.42553e-05 2.45306e-05 2.47825e-05 2.50119e-05 2.522e-05 2.54079e-05 2.55771e-05 2.57286e-05 2.58638e-05 2.59839e-05 2.60901e-05 2.61838e-05 2.6266e-05 2.63378e-05 2.64003e-05 2.64545e-05 2.65012e-05 2.65414e-05 2.65758e-05 2.66051e-05 2.663e-05 2.66511e-05 2.66688e-05 2.66837e-05 2.66961e-05 2.67064e-05 2.67149e-05 2.6722e-05 2.67278e-05 2.67325e-05 2.67364e-05 2.67395e-05 2.6742e-05 2.6744e-05 2.67457e-05 2.6747e-05 2.6748e-05 2.67488e-05 2.67494e-05 2.67499e-05 2.67502e-05 2.67505e-05 2.67506e-05 2.67507e-05 2.67507e-05 2.67506e-05 2.67505e-05 2.67502e-05 2.67499e-05 2.67494e-05 2.67488e-05 2.6748e-05 2.6747e-05 2.67457e-05 2.6744e-05 2.6742e-05 2.67395e-05 2.67364e-05 2.67325e-05 2.67278e-05 2.6722e-05 2.67149e-05 2.67064e-05 2.66961e-05 2.66837e-05 2.66688e-05 2.66511e-05 2.663e-05 2.66051e-05 2.65758e-05 2.65414e-05 2.65012e-05 2.64545e-05 2.64003e-05 2.63378e-05 2.6266e-05 2.61838e-05 2.60901e-05 2.59839e-05 2.58638e-05 2.57286e-05 2.55771e-05 2.54079e-05 2.522e-05 2.50119e-05 2.47825e-05 2.45306e-05 2.42553e-05 2.39555e-05 2.36304e-05 2.32794e-05 2.2902e-05 2.24979e-05 2.20669e-05 2.16091e-05 2.1125e-05 2.06151e-05 2.00803e-05 1.95217e-05 1.89406e-05 1.83387e-05 1.77177e-05 1.70797e-05 1.6427e-05 1.57621e-05 1.50873e-05 1.44056e-05 1.37196e-05 1.30321e-05 1.23461e-05 1.16644e-05 1.09896e-05 1.03247e-05 9.67197e-06 9.03402e-06 8.41304e-06 7.81109e-06 7.23e-06 6.67138e-06 6.13657e-06 5.62669e-06 5.14258e-06 4.68484e-06 4.25384e-06 3.84968e-06 3.47226e-06 3.12128e-06 2.79622e-06 2.49644e-06 2.22109e-06 1.96924e-06 1.73984e-06 1.53174e-06 1.34376e-06 1.17464e-06 1.02313e-06 8.8795e-07 7.67842e-07 6.61566e-07 5.67918e-07 4.85738e-07 4.13921e-07 3.51418e-07 2.97246e-07 2.50489e-07 2.10299e-07 1.75896e-07 1.46568e-07 1.21669e-07 1.00619e-07 8.28953e-08 6.8034e-08 5.56243e-08 4.53043e-08 3.67573e-08 2.97078e-08 2.39171e-08 1.91796e-08 1.53192e-08 1.21857e-08 9.65179e-09 7.60974e-09 5.96904e-09 4.65374e-09 3.60032e-09 2.75567e-09 2.07534e-09 1.52192e-09 1.06364e-09 6.73072e-10 3.25932e-10 0 
0 5.15067e-10 1.06364e-09 1.68083e-09 2.40499e-09 3.27947e-09 4.35445e-09 5.68903e-09 7.35343e-09 9.43153e-09 1.20237e-08 1.52499e-08 1.92531e-08 2.42033e-08 3.03018e-08 3.77858e-08 4.69334e-08 5.80692e-08 7.15701e-08 8.78716e-08 1.07474e-07 1.30947e-07 1.58942e-07 1.92191e-07 2.31516e-07 2.77837e-07 3.32174e-07 3.95649e-07 4.69494e-07 5.55049e-07 6.53759e-07 7.67179e-07 8.96962e-07 1.04485e-06 1.21268e-06 1.40236e-06 1.61583e-06 1.85509e-06 2.12214e-06 2.41899e-06 2.7476e-06 3.10984e-06 3.50753e-06 3.94231e-06 4.41569e-06 4.92895e-06 5.48316e-06 6.0791e-06 6.71726e-06 7.39781e-06 8.12056e-06 8.88495e-06 9.69003e-06 1.05345e-05 1.14165e-05 1.2334e-05 1.32844e-05 1.42649e-05 1.52722e-05 1.63027e-05 1.73526e-05 1.84179e-05 1.94944e-05 2.05775e-05 2.16629e-05 2.27461e-05 2.38225e-05 2.48878e-05 2.59377e-05 2.69683e-05 2.79755e-05 2.8956e-05 2.99064e-05 3.08239e-05 3.1706e-05 3.25504e-05 3.33555e-05 3.41199e-05 3.48426e-05 3.55232e-05 3.61613e-05 3.67573e-05 3.73115e-05 3.78247e-05 3.82981e-05 3.87329e-05 3.91306e-05 3.94928e-05 3.98214e-05 4.01183e-05 4.03853e-05 4.06246e-05 4.08381e-05 4.10277e-05 4.11956e-05 4.13435e-05 4.14732e-05 4.15867e-05 4.16854e-05 4.17709e-05 4.18448e-05 4.19082e-05 4.19626e-05 4.20089e-05 4.20482e-05 4.20815e-05 4.21095e-05 4.21329e-05 4.21525e-05 4.21688e-05 4.21823e-05 4.21935e-05 4.22026e-05 4.22101e-05 4.22162e-05 4.22211e-05 4.22251e-05 4.22283e-05 4.22309e-05 4.22329e-05 4.22345e-05 4.22358e-05 4.22368e-05 4.22375e-05 4.22381e-05 4.22384e-05 4.22387e-05 4.22388e-05 4.22388e-05 4.22387e-05 4.22384e-05 4.22381e-05 4.22375e-05 4.22368e-05 4.22358e-05 4.22345e-05 4.22329e-05 4.22309e-05 4.22283e-05 4.22251e-05 4.22211e-05 4.22162e-05 4.22101e-05 4.22026e-05 4.21935e-05 4.21823e-05 4.21688e-05 4.21525e-05 4.21329e-05 4.21095e-05 4.20815e-05 4.20482e-05 4.20089e-05 4.19626e-05 4.19082e-05 4.18448e-05 4.17709e-05 4.16854e-05 4.15867e-05 4.14732e-05 4.13435e-05 4.11956e-05 4.10277e-05 4.08381e-05 4.06246e-05 4.03853e-05 4.01183e-05 3.98214e-05 3.94928e-05 3.91306e-05 3.87329e-05 3.82981e-05 3.78247e-05 3.73115e-05 3.67573e-05 3.61613e-05 3.55232e-05 3.48426e-05 3.41199e-05 3.33555e-05 3.25504e-05 3.1706e-05 3.08239e-05 2.99064e-05 2.8956e-05 2.79755e-05 2.69683e-05 2.59377e-05 2.48878e-05 2.38225e-05 2.27461e-05 2.16629e-05 2.05775e-05 1.94944e-05 1.84179e-05 1.73526e-05 1.63027e-05 1.52722e-05 1.42649e-05 1.32844e-05 1.2334e-05 1.14165e-05 1.05345e-05 9.69003e-06 8.88495e-06 8.12056e-06 7.39781e-06 6.71726e-06 6.0791e-06 5.48316e-06 4.92895e-06 4.41569e-06 3.94231e-06 3.50753e-06 3.10984e-06 2.7476e-06 2.41899e-06 2.12214e-06 1.85509e-06 1.61583e-06 1.40236e-06 1.21268e-06 1.04485e-06 8.96962e-07 7.67179e-07 6.53759e-07 5.55049e-07 4.69494e-07 3.95649e-07 3.32174e-07 2.77837e-07 2.31516e-07 1.92191e-07 1.58942e-07 1.30947e-07 1.07474e-07 8.78716e-08 7.15701e-08 5.80692e-08 4.69334e-08 3.77858e-08 3.03018e-08 2.42033e-08 1.92531e-08 1.52499e-08 1.20237e-08 9.43153e-09 7.35343e-09 5.68903e-09 4.35445e-09 3.27947e-09 2.40499e-09 1.68083e-09 1.06364e-09 5.15067e-10 0 
0 7.36994e-10 1.52192e-09 2.40499e-09 3.44108e-09 4.69218e-09 6.23008e-09 8.13929e-09 1.05202e-08 1.34929e-08 1.72008e-08 2.18154e-08 2.75413e-08 3.46215e-08 4.33439e-08 5.40474e-08 6.71299e-08 8.30555e-08 1.02363e-07 1.25675e-07 1.53706e-07 1.87273e-07 2.27303e-07 2.74845e-07 3.31076e-07 3.97307e-07 4.74998e-07 5.65753e-07 6.71333e-07 7.93651e-07 9.34776e-07 1.09693e-06 1.28247e-06 1.4939e-06 1.73382e-06 2.00497e-06 2.31013e-06 2.65216e-06 3.03391e-06 3.45825e-06 3.92797e-06 4.44578e-06 5.01423e-06 5.63571e-06 6.31234e-06 7.04598e-06 7.83813e-06 8.68992e-06 9.60205e-06 1.05748e-05 1.16078e-05 1.27003e-05 1.3851e-05 1.50579e-05 1.63185e-05 1.76298e-05 1.89882e-05 2.03896e-05 2.18292e-05 2.3302e-05 2.48026e-05 2.63252e-05 2.78636e-05 2.94117e-05 3.09629e-05 3.2511e-05 3.40494e-05 3.5572e-05 3.70726e-05 3.85454e-05 3.99851e-05 4.13864e-05 4.27448e-05 4.40561e-05 4.53167e-05 4.65236e-05 4.76743e-05 4.87668e-05 4.97998e-05 5.07726e-05 5.16847e-05 5.25365e-05 5.33286e-05 5.40623e-05 5.47389e-05 5.53604e-05 5.59288e-05 5.64466e-05 5.69164e-05 5.73407e-05 5.77225e-05 5.80645e-05 5.83696e-05 5.86408e-05 5.88807e-05 5.90921e-05 5.92777e-05 5.94398e-05 5.9581e-05 5.97033e-05 5.98089e-05 5.98996e-05 5.99773e-05 6.00435e-05 6.00998e-05 6.01473e-05 6.01873e-05 6.02209e-05 6.02489e-05 6.02722e-05 6.02915e-05 6.03075e-05 6.03205e-05 6.03312e-05 6.03399e-05 6.0347e-05 6.03527e-05 6.03573e-05 6.0361e-05 6.03639e-05 6.03662e-05 6.0368e-05 6.03694e-05 6.03704e-05 6.03712e-05 6.03718e-05 6.03721e-05 6.03723e-05 6.03723e-05 6.03721e-05 6.03718e-05 6.03712e-05 6.03704e-05 6.03694e-05 6.0368e-05 6.03662e-05 6.03639e-05 6.0361e-05 6.03573e-05 6.03527e-05 6.0347e-05 6.03399e-05 6.03312e-05 6.03205e-05 6.03075e-05 6.02915e-05 6.02722e-05 6.02489e-05 6.02209e-05 6.01873e-05 6.01473e-05 6.00998e-05 6.00435e-05 5.99773e-05 5.98996e-05 5.98089e-05 5.97033e-05 5.9581e-05 5.94398e-05 5.92777e-05 5.90921e-05 5.88807e-05 5.86408e-05 5.83696e-05 5.80645e-05 5.77225e-05 5.73407e-05 5.69164e-05 5.64466e-05 5.59288e-05 5.53604e-05 5.47389e-05 5.40623e-05 5.33286e-05 5.25365e-05 5.16847e-05 5.07726e-05 4.97998e-05 4.87668e-05 4.76743e-05 4.65236e-05 4.53167e-05 4.40561e-05 4.27448e-05 4.13864e-05 3.99851e-05 3.85454e-05 3.70726e-05 3.5572e-05 3.40494e-05 3.2511e-05 3.09629e-05 2.94117e-05 2.78636e-05 2.63252e-05 2.48026e-05 2.3302e-05 2.18292e-05 2.03896e-05 1.89882e-05 1.76298e-05 1.63185e-05 1.50579e-05 1.3851e-05 1.27003e-05 1.16078e-05 1.05748e-05 9.60205e-06 8.68992e-06 7.83813e-06 7.04598e-06 6.31234e-06 5.63571e-06 5.01423e-06 4.44578e-06 3.92797e-06 3.45825e-06 3.03391e-06 2.65216e-06 2.31013e-06 2.00497e-06 1.73382e-06 1.4939e-06 1.28247e-06 1.09693e-06 9.34776e-07 7.93651e-07 6.71333e-07 5.65753e-07 4.74998e-07 3.97307e-07 3.31076e-07 2.74845e-07 2.27303e-07 1.87273e-07 1.53706e-07 1.25675e-07 1.02363e-07 8.30555e-08 6.71299e-08 5.40474e-08 4.33439e-08 3.46215e-08 2.75413e-08 2.18154e-08 1.72008e-08 1.34929e-08 1.05202e-08 8.13929e-09 6.23008e-09 4.69218e-09 3.44108e-09 2.40499e-09 1.52192e-09 7.36994e-10 0 
0 1.005e-09 2.07534e-09 3.27947e-09 4.69218e-09 6.39798e-09 8.49472e-09 1.10976e-08 1.43434e-08 1.83957e-08 2.345e-08 2.97401e-08 3.75447e-08 4.71949e-08 5.90829e-08 7.36706e-08 9.15e-08 1.13203e-07 1.39514e-07 1.71282e-07 2.09479e-07 2.55218e-07 3.09763e-07 3.74541e-07 4.51156e-07 5.41395e-07 6.47243e-07 7.70888e-07 9.14726e-07 1.08136e-06 1.27362e-06 1.49451e-06 1.74727e-06 2.03527e-06 2.3621e-06 2.73144e-06 3.14711e-06 3.61299e-06 4.13296e-06 4.71093e-06 5.35071e-06 6.05596e-06 6.83019e-06 7.67662e-06 8.59816e-06 9.59732e-06 1.06762e-05 1.18362e-05 1.30784e-05 1.44031e-05 1.581e-05 1.72978e-05 1.88648e-05 2.05084e-05 2.22252e-05 2.40109e-05 2.58607e-05 2.7769e-05 2.97295e-05 3.17352e-05 3.37787e-05 3.5852e-05 3.7947e-05 4.00551e-05 4.21675e-05 4.42756e-05 4.63706e-05 4.84439e-05 5.04874e-05 5.24931e-05 5.44536e-05 5.63619e-05 5.82117e-05 5.99974e-05 6.17142e-05 6.33578e-05 6.49248e-05 6.64126e-05 6.78195e-05 6.91442e-05 7.03864e-05 7.15464e-05 7.26253e-05 7.36244e-05 7.4546e-05 7.53924e-05 7.61666e-05 7.68719e-05 7.75117e-05 7.80896e-05 7.86096e-05 7.90755e-05 7.94912e-05 7.98605e-05 8.01873e-05 8.04753e-05 8.07281e-05 8.0949e-05 8.11412e-05 8.13079e-05 8.14517e-05 8.15754e-05 8.16812e-05 8.17714e-05 8.18481e-05 8.19128e-05 8.19674e-05 8.20131e-05 8.20513e-05 8.20831e-05 8.21094e-05 8.21311e-05 8.21489e-05 8.21635e-05 8.21753e-05 8.2185e-05 8.21927e-05 8.2199e-05 8.2204e-05 8.2208e-05 8.22111e-05 8.22136e-05 8.22155e-05 8.22169e-05 8.2218e-05 8.22187e-05 8.22192e-05 8.22194e-05 8.22194e-05 8.22192e-05 8.22187e-05 8.2218e-05 8.22169e-05 8.22155e-05 8.22136e-05 8.22111e-05 8.2208e-05 8.2204e-05 8.2199e-05 8.21927e-05 8.2185e-05 8.21753e-05 8.21635e-05 8.21489e-05 8.21311e-05 8.21094e-05 8.20831e-05 8.20513e-05 8.20131e-05 8.19674e-05 8.19128e-05 8.18481e-05 8.17714e-05 8.16812e-05 8.15754e-05 8.14517e-05 8.13079e-05 8.11412e-05 8.0949e-05 8.07281e-05 8.04753e-05 8.01873e-05 7.98605e-05 7.94912e-05 7.90755e-05 7.86096e-05 7.80896e-05 7.75117e-05 7.68719e-05 7.61666e-05 7.53924e-05 7.4546e-05 7.36244e-05 7.26253e-05 7.15464e-05 7.03864e-05 6.91442e-05 6.78195e-05 6.64126e-05 6.49248e-05 6.33578e-05 6.17142e-05 5.99974e-05 5.82117e-05 5.63619e-05 5.44536e-05 5.24931e-05 5.04874e-05 4.84439e-05 4.63706e-05 4.42756e-05 4.21675e-05 4.00551e-05 3.7947e-05 3.5852e-05 3.37787e-05 3.17352e-05 2.97295e-05 2.7769e-05 2.58607e-05 2.40109e-05 2.22252e-05 2.05084e-05 1.88648e-05 1.72978e-05 1.581e-05 1.44031e-05 1.30784e-05 1.18362e-05 1.06762e-05 9.59732e-06 8.59816e-06 7.67662e-06 6.83019e-06 6.05596e-06 5.35071e-06 4.71093e-06 4.13296e-06 3.61299e-06 3.14711e-06 2.73144e-06 2.3621e-06 2.03527e-06 1.74727e-06 1.49451e-06 1.27362e-06 1.08136e-06 9.14726e-07 7.70888e-07 6.47243e-07 5.41395e-07 4.51156e-07 3.74541e-07 3.09763e-07 2.55218e-07 2.09479e-07 1.71282e-07 1.39514e-07 1.13203e-07 9.15e-08 7.36706e-08 5.90829e-08 4.71949e-08 3.75447e-08 2.97401e-08 2.345e-08 1.83957e-08 1.43434e-08 1.10976e-08 8.49472e-09 6.39798e-09 4.69218e-09 3.27947e-09 2.07534e-09 1.005e-09 0 
0 1.33447e-09 2.75567e-09 4.35445e-09 6.23008e-09 8.49472e-09 1.12782e-08 1.47334e-08 1.90419e-08 2.44206e-08 3.11291e-08 3.94774e-08 4.98354e-08 6.26423e-08 7.84183e-08 9.77762e-08 1.21435e-07 1.50233e-07 1.85144e-07 2.27293e-07 2.77972e-07 3.38655e-07 4.11018e-07 4.96956e-07 5.98592e-07 7.18298e-07 8.58707e-07 1.02272e-06 1.21351e-06 1.43454e-06 1.68954e-06 1.98252e-06 2.31774e-06 2.69972e-06 3.13317e-06 3.62299e-06 4.17425e-06 4.79206e-06 5.48161e-06 6.24806e-06 7.09644e-06 8.03164e-06 9.05829e-06 1.01807e-05 1.14026e-05 1.27274e-05 1.41579e-05 1.56961e-05 1.73431e-05 1.90995e-05 2.09648e-05 2.29375e-05 2.50151e-05 2.71942e-05 2.94703e-05 3.18379e-05 3.42904e-05 3.68205e-05 3.94196e-05 4.20787e-05 4.4788e-05 4.75368e-05 5.03143e-05 5.31091e-05 5.59097e-05 5.87045e-05 6.1482e-05 6.42308e-05 6.694e-05 6.95992e-05 7.21983e-05 7.47283e-05 7.71809e-05 7.95484e-05 8.18245e-05 8.40037e-05 8.60813e-05 8.8054e-05 8.99192e-05 9.16756e-05 9.33227e-05 9.48609e-05 9.62913e-05 9.76162e-05 9.88381e-05 9.99605e-05 0.000100987 0.000101922 0.000102771 0.000103537 0.000104227 0.000104845 0.000105396 0.000105886 0.000106319 0.000106701 0.000107036 0.000107329 0.000107584 0.000107805 0.000107996 0.00010816 0.0001083 0.00010842 0.000108522 0.000108608 0.00010868 0.000108741 0.000108791 0.000108834 0.000108869 0.000108897 0.000108921 0.00010894 0.000108956 0.000108969 0.000108979 0.000108987 0.000108994 0.000108999 0.000109004 0.000109007 0.000109009 0.000109011 0.000109013 0.000109014 0.000109014 0.000109015 0.000109015 0.000109014 0.000109014 0.000109013 0.000109011 0.000109009 0.000109007 0.000109004 0.000108999 0.000108994 0.000108987 0.000108979 0.000108969 0.000108956 0.00010894 0.000108921 0.000108897 0.000108869 0.000108834 0.000108791 0.000108741 0.00010868 0.000108608 0.000108522 0.00010842 0.0001083 0.00010816 0.000107996 0.000107805 0.000107584 0.000107329 0.000107036 0.000106701 0.000106319 0.000105886 0.000105396 0.000104845 0.000104227 0.000103537 0.000102771 0.000101922 0.000100987 9.99605e-05 9.88381e-05 9.76162e-05 9.62913e-05 9.48609e-05 9.33227e-05 9.16756e-05 8.99192e-05 8.8054e-05 8.60813e-05 8.40037e-05 8.18245e-05 7.95484e-05 7.71809e-05 7.47283e-05 7.21983e-05 6.95992e-05 6.694e-05 6.42308e-05 6.1482e-05 5.87045e-05 5.59097e-05 5.31091e-05 5.03143e-05 4.75368e-05 4.4788e-05 4.20787e-05 3.94196e-05 3.68205e-05 3.42904e-05 3.18379e-05 2.94703e-05 2.71942e-05 2.50151e-05 2.29375e-05 2.09648e-05 1.90995e-05 1.73431e-05 1.56961e-05 1.41579e-05 1.27274e-05 1.14026e-05 1.01807e-05 9.05829e-06 8.03164e-06 7.09644e-06 6.24806e-06 5.48161e-06 4.79206e-06 4.17425e-06 3.62299e-06 3.13317e-06 2.69972e-06 2.31774e-06 1.98252e-06 1.68954e-06 1.43454e-06 1.21351e-06 1.02272e-06 8.58707e-07 7.18298e-07 5.98592e-07 4.96956e-07 4.11018e-07 3.38655e-07 2.77972e-07 2.27293e-07 1.85144e-07 1.50233e-07 1.21435e-07 9.77762e-08 7.84183e-08 6.26423e-08 4.98354e-08 3.94774e-08 3.11291e-08 2.44206e-08 1.90419e-08 1.47334e-08 1.12782e-08 8.49472e-09 6.23008e-09 4.35445e-09 2.75567e-09 1.33447e-09 0 
0 1.74353e-09 3.60032e-09 5.68903e-09 8.13929e-09 1.10976e-08 1.47334e-08 1.92463e-08 2.48735e-08 3.18982e-08 4.0659e-08 5.15609e-08 6.50865e-08 8.18092e-08 1.02408e-07 1.27683e-07 1.58571e-07 1.96169e-07 2.41745e-07 2.96768e-07 3.62924e-07 4.42136e-07 5.36593e-07 6.48763e-07 7.8142e-07 9.37658e-07 1.12091e-06 1.33496e-06 1.58395e-06 1.8724e-06 2.20517e-06 2.58749e-06 3.02492e-06 3.52335e-06 4.08893e-06 4.72806e-06 5.44731e-06 6.2534e-06 7.15308e-06 8.15304e-06 9.25989e-06 1.048e-05 1.18194e-05 1.32836e-05 1.48777e-05 1.6606e-05 1.84721e-05 2.04786e-05 2.26272e-05 2.49184e-05 2.73515e-05 2.99248e-05 3.26349e-05 3.54774e-05 3.84463e-05 4.15346e-05 4.47336e-05 4.80337e-05 5.1424e-05 5.48924e-05 5.84262e-05 6.20117e-05 6.56345e-05 6.92799e-05 7.29329e-05 7.65783e-05 8.02011e-05 8.37866e-05 8.73204e-05 9.07888e-05 9.41791e-05 9.74792e-05 0.000100678 0.000103766 0.000106735 0.000109578 0.000112288 0.000114861 0.000117294 0.000119586 0.000121734 0.000123741 0.000125607 0.000127335 0.000128929 0.000130393 0.000131733 0.000132953 0.00013406 0.00013506 0.000135959 0.000136765 0.000137485 0.000138124 0.000138689 0.000139188 0.000139625 0.000140008 0.00014034 0.000140629 0.000140878 0.000141092 0.000141275 0.000141431 0.000141564 0.000141676 0.000141771 0.00014185 0.000141916 0.000141971 0.000142017 0.000142054 0.000142085 0.00014211 0.000142131 0.000142148 0.000142161 0.000142172 0.000142181 0.000142187 0.000142193 0.000142197 0.0001422 0.000142203 0.000142205 0.000142206 0.000142207 0.000142207 0.000142207 0.000142207 0.000142206 0.000142205 0.000142203 0.0001422 0.000142197 0.000142193 0.000142187 0.000142181 0.000142172 0.000142161 0.000142148 0.000142131 0.00014211 0.000142085 0.000142054 0.000142017 0.000141971 0.000141916 0.00014185 0.000141771 0.000141676 0.000141564 0.000141431 0.000141275 0.000141092 0.000140878 0.000140629 0.00014034 0.000140008 0.000139625 0.000139188 0.000138689 0.000138124 0.000137485 0.000136765 0.000135959 0.00013506 0.00013406 0.000132953 0.000131733 0.000130393 0.000128929 0.000127335 0.000125607 0.000123741 0.000121734 0.000119586 0.000117294 0.000114861 0.000112288 0.000109578 0.000106735 0.000103766 0.000100678 9.74792e-05 9.41791e-05 9.07888e-05 8.73204e-05 8.37866e-05 8.02011e-05 7.65783e-05 7.29329e-05 6.92799e-05 6.56345e-05 6.20117e-05 5.84262e-05 5.48924e-05 5.1424e-05 4.80337e-05 4.47336e-05 4.15346e-05 3.84463e-05 3.54774e-05 3.26349e-05 2.99248e-05 2.73515e-05 2.49184e-05 2.26272e-05 2.04786e-05 1.84721e-05 1.6606e-05 1.48777e-05 1.32836e-05 1.18194e-05 1.048e-05 9.25989e-06 8.15304e-06 7.15308e-06 6.2534e-06 5.44731e-06 4.72806e-06 4.08893e-06 3.52335e-06 3.02492e-06 2.58749e-06 2.20517e-06 1.8724e-06 1.58395e-06 1.33496e-06 1.12091e-06 9.37658e-07 7.8142e-07 6.48763e-07 5.36593e-07 4.42136e-07 3.62924e-07 2.96768e-07 2.41745e-07 1.96169e-07 1.58571e-07 1.27683e-07 1.02408e-07 8.18092e-08 6.50865e-08 5.15609e-08 4.0659e-08 3.18982e-08 2.48735e-08 1.92463e-08 1.47334e-08 1.10976e-08 8.13929e-09 5.68903e-09 3.60032e-09 1.74353e-09 0 
0 2.2537e-09 4.65374e-09 7.35343e-09 1.05202e-08 1.43434e-08 1.90419e-08 2.48735e-08 3.21446e-08 4.12209e-08 5.25399e-08 6.66244e-08 8.40976e-08 1.057e-07 1.32309e-07 1.64956e-07 2.04853e-07 2.53414e-07 3.12278e-07 3.83339e-07 4.68775e-07 5.71069e-07 6.93045e-07 8.37889e-07 1.00918e-06 1.21092e-06 1.44753e-06 1.72389e-06 2.04536e-06 2.41776e-06 2.84736e-06 3.34092e-06 3.90561e-06 4.54903e-06 5.27911e-06 6.10411e-06 7.03252e-06 8.07299e-06 9.23423e-06 1.05249e-05 1.19535e-05 1.35282e-05 1.52568e-05 1.71465e-05 1.92039e-05 2.14343e-05 2.38426e-05 2.6432e-05 2.92048e-05 3.21615e-05 3.53014e-05 3.8622e-05 4.21193e-05 4.57872e-05 4.96184e-05 5.36035e-05 5.77315e-05 6.19899e-05 6.63646e-05 7.08401e-05 7.54e-05 8.00265e-05 8.47013e-05 8.94051e-05 9.41188e-05 9.88226e-05 0.000103497 0.000108124 0.000112684 0.000117159 0.000121534 0.000125792 0.00012992 0.000133905 0.000137737 0.000141405 0.000144902 0.000148222 0.000151362 0.000154319 0.000157092 0.000159681 0.00016209 0.00016432 0.000166377 0.000168267 0.000169996 0.00017157 0.000172999 0.00017429 0.000175451 0.000176491 0.00017742 0.000178245 0.000178975 0.000179618 0.000180183 0.000180677 0.000181106 0.000181479 0.0001818 0.000182076 0.000182313 0.000182515 0.000182686 0.000182831 0.000182953 0.000183055 0.000183141 0.000183212 0.00018327 0.000183319 0.000183359 0.000183391 0.000183418 0.00018344 0.000183457 0.000183471 0.000183482 0.000183491 0.000183498 0.000183504 0.000183508 0.000183511 0.000183514 0.000183515 0.000183516 0.000183517 0.000183517 0.000183516 0.000183515 0.000183514 0.000183511 0.000183508 0.000183504 0.000183498 0.000183491 0.000183482 0.000183471 0.000183457 0.00018344 0.000183418 0.000183391 0.000183359 0.000183319 0.00018327 0.000183212 0.000183141 0.000183055 0.000182953 0.000182831 0.000182686 0.000182515 0.000182313 0.000182076 0.0001818 0.000181479 0.000181106 0.000180677 0.000180183 0.000179618 0.000178975 0.000178245 0.00017742 0.000176491 0.000175451 0.00017429 0.000172999 0.00017157 0.000169996 0.000168267 0.000166377 0.00016432 0.00016209 0.000159681 0.000157092 0.000154319 0.000151362 0.000148222 0.000144902 0.000141405 0.000137737 0.000133905 0.00012992 0.000125792 0.000121534 0.000117159 0.000112684 0.000108124 0.000103497 9.88226e-05 9.41188e-05 8.94051e-05 8.47013e-05 8.00265e-05 7.54e-05 7.08401e-05 6.63646e-05 6.19899e-05 5.77315e-05 5.36035e-05 4.96184e-05 4.57872e-05 4.21193e-05 3.8622e-05 3.53014e-05 3.21615e-05 2.92048e-05 2.6432e-05 2.38426e-05 2.14343e-05 1.92039e-05 1.71465e-05 1.52568e-05 1.35282e-05 1.19535e-05 1.05249e-05 9.23423e-06 8.07299e-06 7.03252e-06 6.10411e-06 5.27911e-06 4.54903e-06 3.90561e-06 3.34092e-06 2.84736e-06 2.41776e-06 2.04536e-06 1.72389e-06 1.44753e-06 1.21092e-06 1.00918e-06 8.37889e-07 6.93045e-07 5.71069e-07 4.68775e-07 3.83339e-07 3.12278e-07 2.53414e-07 2.04853e-07 1.64956e-07 1.32309e-07 1.057e-07 8.40976e-08 6.66244e-08 5.25399e-08 4.12209e-08 3.21446e-08 2.48735e-08 1.90419e-08 1.43434e-08 1.05202e-08 7.35343e-09 4.65374e-09 2.2537e-09 0 
0 2.89072e-09 5.96904e-09 9.43153e-09 1.34929e-08 1.83957e-08 2.44206e-08 3.18982e-08 4.12209e-08 5.28575e-08 6.73688e-08 8.54246e-08 1.07824e-07 1.35515e-07 1.69621e-07 2.11466e-07 2.62601e-07 3.24837e-07 4.00274e-07 4.91341e-07 6.00823e-07 7.31903e-07 8.88198e-07 1.07379e-06 1.29326e-06 1.55173e-06 1.85487e-06 2.20893e-06 2.62076e-06 3.09782e-06 3.64815e-06 4.28039e-06 5.00373e-06 5.82788e-06 6.76302e-06 7.81971e-06 9.00882e-06 1.03414e-05 1.18287e-05 1.34816e-05 1.53112e-05 1.73279e-05 1.95416e-05 2.19616e-05 2.45962e-05 2.74524e-05 3.05363e-05 3.38521e-05 3.74026e-05 4.11887e-05 4.52092e-05 4.94611e-05 5.39391e-05 5.86357e-05 6.35412e-05 6.86437e-05 7.39291e-05 7.93815e-05 8.49828e-05 9.07132e-05 9.65514e-05 0.000102475 0.00010846 0.000114483 0.000120518 0.000126541 0.000132526 0.00013845 0.000144288 0.000150018 0.00015562 0.000161072 0.000166357 0.00017146 0.000176365 0.000181062 0.00018554 0.000189792 0.000193812 0.000197599 0.000201149 0.000204465 0.000207549 0.000210405 0.00021304 0.00021546 0.000217673 0.00021969 0.00022152 0.000223172 0.00022466 0.000225992 0.000227181 0.000228238 0.000229173 0.000229997 0.000230721 0.000231353 0.000231903 0.00023238 0.000232792 0.000233146 0.000233449 0.000233708 0.000233927 0.000234113 0.000234269 0.0002344 0.00023451 0.000234601 0.000234676 0.000234739 0.00023479 0.000234831 0.000234865 0.000234893 0.000234915 0.000234933 0.000234948 0.000234959 0.000234968 0.000234975 0.000234981 0.000234985 0.000234988 0.00023499 0.000234991 0.000234992 0.000234992 0.000234991 0.00023499 0.000234988 0.000234985 0.000234981 0.000234975 0.000234968 0.000234959 0.000234948 0.000234933 0.000234915 0.000234893 0.000234865 0.000234831 0.00023479 0.000234739 0.000234676 0.000234601 0.00023451 0.0002344 0.000234269 0.000234113 0.000233927 0.000233708 0.000233449 0.000233146 0.000232792 0.00023238 0.000231903 0.000231353 0.000230721 0.000229997 0.000229173 0.000228238 0.000227181 0.000225992 0.00022466 0.000223172 0.00022152 0.00021969 0.000217673 0.00021546 0.00021304 0.000210405 0.000207549 0.000204465 0.000201149 0.000197599 0.000193812 0.000189792 0.00018554 0.000181062 0.000176365 0.00017146 0.000166357 0.000161072 0.00015562 0.000150018 0.000144288 0.00013845 0.000132526 0.000126541 0.000120518 0.000114483 0.00010846 0.000102475 9.65514e-05 9.07132e-05 8.49828e-05 7.93815e-05 7.39291e-05 6.86437e-05 6.35412e-05 5.86357e-05 5.39391e-05 4.94611e-05 4.52092e-05 4.11887e-05 3.74026e-05 3.38521e-05 3.05363e-05 2.74524e-05 2.45962e-05 2.19616e-05 1.95416e-05 1.73279e-05 1.53112e-05 1.34816e-05 1.18287e-05 1.03414e-05 9.00882e-06 7.81971e-06 6.76302e-06 5.82788e-06 5.00373e-06 4.28039e-06 3.64815e-06 3.09782e-06 2.62076e-06 2.20893e-06 1.85487e-06 1.55173e-06 1.29326e-06 1.07379e-06 8.88198e-07 7.31903e-07 6.00823e-07 4.91341e-07 4.00274e-07 3.24837e-07 2.62601e-07 2.11466e-07 1.69621e-07 1.35515e-07 1.07824e-07 8.54246e-08 6.73688e-08 5.28575e-08 4.12209e-08 3.18982e-08 2.44206e-08 1.83957e-08 1.34929e-08 9.43153e-09 5.96904e-09 2.89072e-09 0 