<?xml version="1.0"?>
<VTKFile type="ImageData" version="0.1" byte_order="LittleEndian">
  <ImageData WholeExtent="0 255 0 255 0 0" Origin="0 0 0" Spacing="1 1 1">
  <Piece Extent="0 255 0 255 0 0">
    <PointData>
      <DataArray type="Float32" Name="scalar_data" format="ascii" >0 0 0 0 0 0 0 0 0 0 0 0 0 0 0 0 0 0 0 0 0 0 0 0 0 0 0 0 0 0 0 0 0 0 0 0 0 0 0 0 0 0 0 0 0 0 0 0 0 0 0 0 0 0 0 0 0 0 0 0 0 0 0 0 0 0 0 0 0 0 0 0 0 0 0 0 0 0 0 0 0 0 0 0 0 0 0 0 0 0 0 0 0 0 0 0 0 0 0 0 0 0 0 0 0 0 0 0 0 0 0 0 0 0 0 0 0 0 0 0 0 0 0 0 0 0 0 0 0 0 0 0 0 0 0 0 0 0 0 0 0 0 0 0 0 0 0 0 0 0 0 0 0 0 0 0 0 0 0 0 0 0 0 0 0 0 0 0 0 0 0 0 0 0 0 0 0 0 0 0 0 0 0 0 0 0 0 0 0 0 0 0 0 0 0 0 0 0 0 0 0 0 0 0 0 0 0 0 0 0 0 0 0 0 0 0 0 0 0 0 0 0 0 0 0 0 0 0 0 0 0 0 0 0 0 0 0 0 0 0 0 0 0 0 0 0 0 0 0 0 0 0 0 0 0 0 
0 7.55841e-26 2.09311e-25 5.00402e-25 1.15662e-24 2.62968e-24 5.89814e-24 1.3057e-23 2.85317e-23 6.15411e-23 1.31026e-22 2.75361e-22 5.71214e-22 1.16961e-21 2.36392e-21 4.71595e-21 9.28644e-21 1.80498e-20 3.46287e-20 6.55755e-20 1.22571e-19 2.2614e-19 4.11821e-19 7.40259e-19 1.31342e-18 2.30023e-18 3.97638e-18 6.78514e-18 1.14285e-17 1.90011e-17 3.11843e-17 5.05206e-17 8.07947e-17 1.27552e-16 1.98788e-16 3.05845e-16 4.64554e-16 6.96634e-16 1.03139e-15 1.50767e-15 2.17607e-15 3.1013e-15 4.36454e-15 6.06572e-15 8.32535e-15 1.12857e-14 1.51108e-14 1.99858e-14 2.61134e-14 3.371e-14 4.29983e-14 5.41991e-14 6.75205e-14 8.31462e-14 1.01223e-13 1.21846e-13 1.45052e-13 1.70804e-13 1.98988e-13 2.29408e-13 2.61789e-13 2.95782e-13 3.30976e-13 3.66911e-13 4.03096e-13 4.39031e-13 4.74225e-13 5.08218e-13 5.40599e-13 5.71019e-13 5.99203e-13 6.24955e-13 6.48161e-13 6.68784e-13 6.86861e-13 7.02487e-13 7.15808e-13 7.27009e-13 7.36297e-13 7.43894e-13 7.50021e-13 7.54896e-13 7.58721e-13 7.61682e-13 7.63941e-13 7.65642e-13 7.66906e-13 7.67831e-13 7.68499e-13 7.68976e-13 7.6931e-13 7.69542e-13 7.69701e-13 7.69808e-13 7.69879e-13 7.69926e-13 7.69957e-13 7.69976e-13 7.69988e-13 7.69996e-13 7.7e-13 7.70003e-13 7.70005e-13 7.70006e-13 7.70006e-13 7.70007e-13 7.70007e-13 7.70007e-13 7.70007e-13 7.70007e-13 7.70007e-13 7.70007e-13 7.70007e-13 7.70007e-13 7.70007e-13 7.70007e-13 7.70007e-13 7.70007e-13 7.70007e-13 7.70007e-13 7.70007e-13 7.70007e-13 7.70007e-13 7.70007e-13 7.70007e-13 7.70007e-13 7.70007e-13 7.70007e-13 7.70007e-13 7.70007e-13 7.70007e-13 7.70007e-13 7.70007e-13 7.70007e-13 7.70007e-13 7.70007e-13 7.70007e-13 7.70007e-13 7.70007e-13 7.70007e-13 7.70007e-13 7.70007e-13 7.70007e-13 7.70007e-13 7.70007e-13 7.70007e-13 7.70007e-13 7.70007e-13 7.70007e-13 7.70007e-13 7.70007e-13 7.70006e-13 7.70006e-13 7.70005e-13 7.70003e-13 7.7e-13 7.69996e-13 7.69988e-13 7.69976e-13 7.69957e-13 7.69926e-13 7.69879e-13 7.69808e-13 7.69701e-13 7.69542e-13 7.6931e-13 7.68976e-13 7.68499e-13 7.67831e-13 7.66906e-13 7.65642e-13 7.63941e-13 7.61682e-13 7.58721e-13 7.54896e-13 7.50021e-13 7.43894e-13 7.36297e-13 7.27009e-13 7.15808e-13 7.02487e-13 6.86861e-13 6.68784e-13 6.48161e-13 6.24955e-13 5.99203e-13 5.71019e-13 5.40599e-13 5.08218e-13 4.74225e-13 4.39031e-13 4.03096e-13 3.66911e-13 3.30976e-13 2.95782e-13 2.61789e-13 2.29408e-13 1.98988e-13 1.70804e-13 1.45052e-13 1.21846e-13 1.01223e-13 8.31462e-14 6.75205e-14 5.41991e-14 4.29983e-14 3.371e-14 2.61134e-14 1.99858e-14 1.51108e-14 1.12857e-14 8.32535e-15 6.06572e-15 4.36454e-15 3.1013e-15 2.17607e-15 1.50767e-15 1.03139e-15 6.96634e-16 4.64554e-16 3.05845e-16 1.98788e-16 1.27552e-16 8.07947e-17 5.05206e-17 3.11843e-17 1.90011e-17 1.14285e-17 6.78514e-18 3.97638e-18 2.30023e-18 1.31342e-18 7.40259e-19 4.11821e-19 2.2614e-19 1.22571e-19 6.55755e-20 3.46287e-20 1.80498e-20 9.28644e-21 4.71595e-21 2.36392e-21 1.16961e-21 5.71214e-22 2.75361e-22 1.31026e-22 6.15411e-23 2.85317e-23 1.3057e-23 5.89814e-24 2.62968e-24 1.15662e-24 5.00402e-25 2.09311e-25 7.55841e-26 0 
0 2.09311e-25 5.7904e-25 1.38253e-24 3.19117e-24 7.24541e-24 1.62288e-23 3.5879e-23 7.82989e-23 1.6867e-22 3.58663e-22 7.52834e-22 1.55981e-21 3.19011e-21 6.44015e-21 1.28334e-20 2.52431e-20 4.90114e-20 9.39298e-20 1.7769e-19 3.31797e-19 6.11555e-19 1.11263e-18 1.99812e-18 3.54198e-18 6.19767e-18 1.07046e-17 1.82506e-17 3.07151e-17 5.10267e-17 8.368e-17 1.35466e-16 2.16486e-16 3.4153e-16 5.31909e-16 8.17834e-16 1.24144e-15 1.86049e-15 2.7529e-15 4.02187e-15 5.80174e-15 8.26422e-15 1.16246e-14 1.61479e-14 2.21533e-14 3.00175e-14 4.0175e-14 5.31151e-14 6.93745e-14 8.95246e-14 1.14154e-13 1.43846e-13 1.7915e-13 2.2055e-13 2.68432e-13 3.2305e-13 3.84495e-13 4.5267e-13 5.27272e-13 6.07783e-13 6.93477e-13 7.8343e-13 8.76556e-13 9.71638e-13 1.06738e-12 1.16246e-12 1.25559e-12 1.34554e-12 1.43124e-12 1.51175e-12 1.58635e-12 1.65453e-12 1.71597e-12 1.77059e-12 1.81847e-12 1.85987e-12 1.89517e-12 1.92487e-12 1.9495e-12 1.96965e-12 1.9859e-12 1.99885e-12 2.009e-12 2.01687e-12 2.02287e-12 2.0274e-12 2.03076e-12 2.03322e-12 2.035e-12 2.03627e-12 2.03716e-12 2.03778e-12 2.0382e-12 2.03849e-12 2.03868e-12 2.0388e-12 2.03888e-12 2.03894e-12 2.03897e-12 2.03899e-12 2.039e-12 2.03901e-12 2.03901e-12 2.03902e-12 2.03902e-12 2.03902e-12 2.03902e-12 2.03902e-12 2.03902e-12 2.03902e-12 2.03902e-12 2.03902e-12 2.03902e-12 2.03902e-12 2.03902e-12 2.03902e-12 2.03902e-12 2.03902e-12 2.03902e-12 2.03902e-12 2.03902e-12 2.03902e-12 2.03902e-12 2.03902e-12 2.03902e-12 2.03902e-12 2.03902e-12 2.03902e-12 2.03902e-12 2.03902e-12 2.03902e-12 2.03902e-12 2.03902e-12 2.03902e-12 2.03902e-12 2.03902e-12 2.03902e-12 2.03902e-12 2.03902e-12 2.03902e-12 2.03902e-12 2.03902e-12 2.03902e-12 2.03902e-12 2.03902e-12 2.03902e-12 2.03902e-12 2.03902e-12 2.03902e-12 2.03902e-12 2.03902e-12 2.03902e-12 2.03902e-12 2.03901e-12 2.03901e-12 2.039e-12 2.03899e-12 2.03897e-12 2.03894e-12 2.03888e-12 2.0388e-12 2.03868e-12 2.03849e-12 2.0382e-12 2.03778e-12 2.03716e-12 2.03627e-12 2.035e-12 2.03322e-12 2.03076e-12 2.0274e-12 2.02287e-12 2.01687e-12 2.009e-12 1.99885e-12 1.9859e-12 1.96965e-12 1.9495e-12 1.92487e-12 1.89517e-12 1.85987e-12 1.81847e-12 1.77059e-12 1.71597e-12 1.65453e-12 1.58635e-12 1.51175e-12 1.43124e-12 1.34554e-12 1.25559e-12 1.16246e-12 1.06738e-12 9.71638e-13 8.76556e-13 7.8343e-13 6.93477e-13 6.07783e-13 5.27272e-13 4.5267e-13 3.84495e-13 3.2305e-13 2.68432e-13 2.2055e-13 1.7915e-13 1.43846e-13 1.14154e-13 8.95246e-14 6.93745e-14 5.31151e-14 4.0175e-14 3.00175e-14 2.21533e-14 1.61479e-14 1.16246e-14 8.26422e-15 5.80174e-15 4.02187e-15 2.7529e-15 1.86049e-15 1.24144e-15 8.17834e-16 5.31909e-16 3.4153e-16 2.16486e-16 1.35466e-16 8.368e-17 5.10267e-17 3.07151e-17 1.82506e-17 1.07046e-17 6.19767e-18 3.54198e-18 1.99812e-18 1.11263e-18 6.11555e-19 3.31797e-19 1.7769e-19 9.39298e-20 4.90114e-20 2.52431e-20 1.28334e-20 6.44015e-21 3.19011e-21 1.55981e-21 7.52834e-22 3.58663e-22 1.6867e-22 7.82989e-23 3.5879e-23 1.62288e-23 7.24541e-24 3.19117e-24 1.38253e-24 5.7904e-25 2.09311e-25 0 
0 5.00402e-25 1.38253e-24 3.29549e-24 7.59339e-24 1.72103e-23 3.84823e-23 8.49327e-23 1.8504e-22 3.97959e-22 8.4487e-22 1.77059e-21 3.66288e-21 7.47996e-21 1.50781e-20 3.0003e-20 5.89317e-20 1.14262e-19 2.18685e-19 4.13144e-19 7.70458e-19 1.41828e-18 2.57716e-18 4.62261e-18 8.18469e-18 1.4305e-17 2.468e-17 4.2032e-17 7.06636e-17 1.17272e-16 1.92126e-16 3.10724e-16 4.96098e-16 7.81937e-16 1.21674e-15 1.8692e-15 2.83503e-15 4.24538e-15 6.27693e-15 9.16358e-15 1.32096e-14 1.88034e-14 2.64322e-14 3.66943e-14 5.0311e-14 6.81322e-14 9.11381e-14 1.20432e-13 1.57222e-13 2.02795e-13 2.58476e-13 3.25576e-13 4.05328e-13 4.98821e-13 6.0692e-13 7.30192e-13 8.68838e-13 1.02264e-12 1.1909e-12 1.37247e-12 1.5657e-12 1.76851e-12 1.97846e-12 2.19281e-12 2.40865e-12 2.623e-12 2.83295e-12 3.03577e-12 3.22899e-12 3.41056e-12 3.57882e-12 3.73262e-12 3.87127e-12 3.99454e-12 4.10264e-12 4.19613e-12 4.27589e-12 4.34299e-12 4.39867e-12 4.44424e-12 4.48103e-12 4.51032e-12 4.53333e-12 4.55115e-12 4.56477e-12 4.57503e-12 4.58266e-12 4.58825e-12 4.5923e-12 4.59518e-12 4.59722e-12 4.59863e-12 4.59959e-12 4.60024e-12 4.60068e-12 4.60097e-12 4.60115e-12 4.60127e-12 4.60134e-12 4.60139e-12 4.60142e-12 4.60144e-12 4.60145e-12 4.60145e-12 4.60146e-12 4.60146e-12 4.60146e-12 4.60146e-12 4.60146e-12 4.60146e-12 4.60146e-12 4.60146e-12 4.60146e-12 4.60146e-12 4.60146e-12 4.60146e-12 4.60146e-12 4.60146e-12 4.60146e-12 4.60146e-12 4.60146e-12 4.60146e-12 4.60146e-12 4.60146e-12 4.60146e-12 4.60146e-12 4.60146e-12 4.60146e-12 4.60146e-12 4.60146e-12 4.60146e-12 4.60146e-12 4.60146e-12 4.60146e-12 4.60146e-12 4.60146e-12 4.60146e-12 4.60146e-12 4.60146e-12 4.60146e-12 4.60146e-12 4.60146e-12 4.60146e-12 4.60146e-12 4.60146e-12 4.60146e-12 4.60146e-12 4.60146e-12 4.60146e-12 4.60146e-12 4.60146e-12 4.60146e-12 4.60145e-12 4.60145e-12 4.60144e-12 4.60142e-12 4.60139e-12 4.60134e-12 4.60127e-12 4.60115e-12 4.60097e-12 4.60068e-12 4.60024e-12 4.59959e-12 4.59863e-12 4.59722e-12 4.59518e-12 4.5923e-12 4.58825e-12 4.58266e-12 4.57503e-12 4.56477e-12 4.55115e-12 4.53333e-12 4.51032e-12 4.48103e-12 4.44424e-12 4.39867e-12 4.34299e-12 4.27589e-12 4.19613e-12 4.10264e-12 3.99454e-12 3.87127e-12 3.73262e-12 3.57882e-12 3.41056e-12 3.22899e-12 3.03577e-12 2.83295e-12 2.623e-12 2.40865e-12 2.19281e-12 1.97846e-12 1.76851e-12 1.5657e-12 1.37247e-12 1.1909e-12 1.02264e-12 8.68838e-13 7.30192e-13 6.0692e-13 4.98821e-13 4.05328e-13 3.25576e-13 2.58476e-13 2.02795e-13 1.57222e-13 1.20432e-13 9.11381e-14 6.81322e-14 5.0311e-14 3.66943e-14 2.64322e-14 1.88034e-14 1.32096e-14 9.16358e-15 6.27693e-15 4.24538e-15 2.83503e-15 1.8692e-15 1.21674e-15 7.81937e-16 4.96098e-16 3.10724e-16 1.92126e-16 1.17272e-16 7.06636e-17 4.2032e-17 2.468e-17 1.4305e-17 8.18469e-18 4.62261e-18 2.57716e-18 1.41828e-18 7.70458e-19 4.13144e-19 2.18685e-19 1.14262e-19 5.89317e-20 3.0003e-20 1.50781e-20 7.47996e-21 3.66288e-21 1.77059e-21 8.4487e-22 3.97959e-22 1.8504e-22 8.49327e-23 3.84823e-23 1.72103e-23 7.59339e-24 3.29549e-24 1.38253e-24 5.00402e-25 0 
0 1.15662e-24 3.19117e-24 7.59339e-24 1.7464e-23 3.95083e-23 8.81789e-23 1.94265e-22 4.2249e-22 9.07054e-22 1.9224e-21 4.02203e-21 8.30686e-21 1.69362e-20 3.40862e-20 6.77213e-20 1.32817e-19 2.57136e-19 4.9142e-19 9.27088e-19 1.72651e-18 3.17391e-18 5.75971e-18 1.03178e-17 1.82455e-17 3.185e-17 5.48845e-17 9.3364e-17 1.56785e-16 2.59912e-16 4.25358e-16 6.87214e-16 1.09609e-15 1.72595e-15 2.68315e-15 4.11819e-15 6.24058e-15 9.33714e-15 1.37939e-14 2.01216e-14 2.89839e-14 4.12276e-14 5.79135e-14 8.03445e-14 1.10089e-13 1.48994e-13 1.99188e-13 2.63067e-13 3.43251e-13 4.4253e-13 5.63775e-13 7.09821e-13 8.83341e-13 1.08668e-12 1.32171e-12 1.58966e-12 1.89094e-12 2.22507e-12 2.59055e-12 2.98486e-12 3.40443e-12 3.84477e-12 4.30057e-12 4.76591e-12 5.23446e-12 5.6998e-12 6.1556e-12 6.59594e-12 7.01551e-12 7.40982e-12 7.7753e-12 8.10943e-12 8.41071e-12 8.67866e-12 8.91369e-12 9.11703e-12 9.29055e-12 9.43659e-12 9.55784e-12 9.65712e-12 9.7373e-12 9.80118e-12 9.85137e-12 9.89028e-12 9.92002e-12 9.94246e-12 9.95914e-12 9.97138e-12 9.98025e-12 9.98657e-12 9.99103e-12 9.99413e-12 9.99625e-12 9.99768e-12 9.99864e-12 9.99927e-12 9.99968e-12 9.99994e-12 1.00001e-11 1.00002e-11 1.00003e-11 1.00003e-11 1.00003e-11 1.00004e-11 1.00004e-11 1.00004e-11 1.00004e-11 1.00004e-11 1.00004e-11 1.00004e-11 1.00004e-11 1.00004e-11 1.00004e-11 1.00004e-11 1.00004e-11 1.00004e-11 1.00004e-11 1.00004e-11 1.00004e-11 1.00004e-11 1.00004e-11 1.00004e-11 1.00004e-11 1.00004e-11 1.00004e-11 1.00004e-11 1.00004e-11 1.00004e-11 1.00004e-11 1.00004e-11 1.00004e-11 1.00004e-11 1.00004e-11 1.00004e-11 1.00004e-11 1.00004e-11 1.00004e-11 1.00004e-11 1.00004e-11 1.00004e-11 1.00004e-11 1.00004e-11 1.00004e-11 1.00004e-11 1.00004e-11 1.00004e-11 1.00004e-11 1.00004e-11 1.00004e-11 1.00004e-11 1.00004e-11 1.00004e-11 1.00004e-11 1.00003e-11 1.00003e-11 1.00003e-11 1.00002e-11 1.00001e-11 9.99994e-12 9.99968e-12 9.99927e-12 9.99864e-12 9.99768e-12 9.99625e-12 9.99413e-12 9.99103e-12 9.98657e-12 9.98025e-12 9.97138e-12 9.95914e-12 9.94246e-12 9.92002e-12 9.89028e-12 9.85137e-12 9.80118e-12 9.7373e-12 9.65712e-12 9.55784e-12 9.43659e-12 9.29055e-12 9.11703e-12 8.91369e-12 8.67866e-12 8.41071e-12 8.10943e-12 7.7753e-12 7.40982e-12 7.01551e-12 6.59594e-12 6.1556e-12 5.6998e-12 5.23446e-12 4.76591e-12 4.30057e-12 3.84477e-12 3.40443e-12 2.98486e-12 2.59055e-12 2.22507e-12 1.89094e-12 1.58966e-12 1.32171e-12 1.08668e-12 8.83341e-13 7.09821e-13 5.63775e-13 4.4253e-13 3.43251e-13 2.63067e-13 1.99188e-13 1.48994e-13 1.10089e-13 8.03445e-14 5.79135e-14 4.12276e-14 2.89839e-14 2.01216e-14 1.37939e-14 9.33714e-15 6.24058e-15 4.11819e-15 2.68315e-15 1.72595e-15 1.09609e-15 6.87214e-16 4.25358e-16 2.59912e-16 1.56785e-16 9.3364e-17 5.48845e-17 3.185e-17 1.82455e-17 1.03178e-17 5.75971e-18 3.17391e-18 1.72651e-18 9.27088e-19 4.9142e-19 2.57136e-19 1.32817e-19 6.77213e-20 3.40862e-20 1.69362e-20 8.30686e-21 4.02203e-21 1.9224e-21 9.07054e-22 4.2249e-22 1.94265e-22 8.81789e-23 3.95083e-23 1.7464e-23 7.59339e-24 3.19117e-24 1.15662e-24 0 
0 2.62968e-24 7.24541e-24 1.72103e-23 3.95083e-23 8.92119e-23 1.98746e-22 4.37062e-22 9.48838e-22 2.03353e-21 4.30246e-21 8.98648e-21 1.85296e-20 3.77174e-20 7.5791e-20 1.50346e-19 2.94415e-19 5.69146e-19 1.08613e-18 2.04612e-18 3.80518e-18 6.98572e-18 1.26602e-17 2.26498e-17 4.00023e-17 6.97433e-17 1.20039e-16 2.03959e-16 3.42116e-16 5.6652e-16 9.26138e-16 1.49472e-15 2.38163e-15 3.74653e-15 5.81879e-15 8.92267e-15 1.35091e-14 2.0195e-14 2.98098e-14 4.34498e-14 6.25386e-14 8.88916e-14 1.2478e-13 1.72993e-13 2.36884e-13 3.20401e-13 4.28092e-13 5.65065e-13 7.36913e-13 9.49581e-13 1.20918e-12 1.52176e-12 1.89299e-12 2.32786e-12 2.83034e-12 3.40301e-12 4.04677e-12 4.76054e-12 5.54114e-12 6.38315e-12 7.27898e-12 8.21905e-12 9.19205e-12 1.01854e-11 1.11855e-11 1.21788e-11 1.31518e-11 1.40919e-11 1.49877e-11 1.58297e-11 1.66103e-11 1.73241e-11 1.79679e-11 1.85405e-11 1.9043e-11 1.94779e-11 1.98491e-11 2.01617e-11 2.04213e-11 2.0634e-11 2.08058e-11 2.09428e-11 2.10505e-11 2.1134e-11 2.11979e-11 2.12461e-11 2.1282e-11 2.13083e-11 2.13274e-11 2.13411e-11 2.13507e-11 2.13574e-11 2.1362e-11 2.13651e-11 2.13671e-11 2.13685e-11 2.13694e-11 2.137e-11 2.13703e-11 2.13705e-11 2.13707e-11 2.13708e-11 2.13708e-11 2.13708e-11 2.13709e-11 2.13709e-11 2.13709e-11 2.13709e-11 2.13709e-11 2.13709e-11 2.13709e-11 2.13709e-11 2.13709e-11 2.13709e-11 2.13709e-11 2.13709e-11 2.13709e-11 2.13709e-11 2.13709e-11 2.13709e-11 2.13709e-11 2.13709e-11 2.13709e-11 2.13709e-11 2.13709e-11 2.13709e-11 2.13709e-11 2.13709e-11 2.13709e-11 2.13709e-11 2.13709e-11 2.13709e-11 2.13709e-11 2.13709e-11 2.13709e-11 2.13709e-11 2.13709e-11 2.13709e-11 2.13709e-11 2.13709e-11 2.13709e-11 2.13709e-11 2.13709e-11 2.13709e-11 2.13709e-11 2.13709e-11 2.13709e-11 2.13709e-11 2.13709e-11 2.13709e-11 2.13709e-11 2.13709e-11 2.13708e-11 2.13708e-11 2.13708e-11 2.13707e-11 2.13705e-11 2.13703e-11 2.137e-11 2.13694e-11 2.13685e-11 2.13671e-11 2.13651e-11 2.1362e-11 2.13574e-11 2.13507e-11 2.13411e-11 2.13274e-11 2.13083e-11 2.1282e-11 2.12461e-11 2.11979e-11 2.1134e-11 2.10505e-11 2.09428e-11 2.08058e-11 2.0634e-11 2.04213e-11 2.01617e-11 1.98491e-11 1.94779e-11 1.9043e-11 1.85405e-11 1.79679e-11 1.73241e-11 1.66103e-11 1.58297e-11 1.49877e-11 1.40919e-11 1.31518e-11 1.21788e-11 1.11855e-11 1.01854e-11 9.19205e-12 8.21905e-12 7.27898e-12 6.38315e-12 5.54114e-12 4.76054e-12 4.04677e-12 3.40301e-12 2.83034e-12 2.32786e-12 1.89299e-12 1.52176e-12 1.20918e-12 9.49581e-13 7.36913e-13 5.65065e-13 4.28092e-13 3.20401e-13 2.36884e-13 1.72993e-13 1.2478e-13 8.88916e-14 6.25386e-14 4.34498e-14 2.98098e-14 2.0195e-14 1.35091e-14 8.92267e-15 5.81879e-15 3.74653e-15 2.38163e-15 1.49472e-15 9.26138e-16 5.6652e-16 3.42116e-16 2.03959e-16 1.20039e-16 6.97433e-17 4.00023e-17 2.26498e-17 1.26602e-17 6.98572e-18 3.80518e-18 2.04612e-18 1.08613e-18 5.69146e-19 2.94415e-19 1.50346e-19 7.5791e-20 3.77174e-20 1.85296e-20 8.98648e-21 4.30246e-21 2.03353e-21 9.48838e-22 4.37062e-22 1.98746e-22 8.92119e-23 3.95083e-23 1.72103e-23 7.24541e-24 2.62968e-24 0 
0 5.89814e-24 1.62288e-23 3.84823e-23 8.81789e-23 1.98746e-22 4.41962e-22 9.70181e-22 2.10252e-21 4.49831e-21 9.50126e-21 1.98122e-20 4.07851e-20 8.28868e-20 1.66296e-19 3.29375e-19 6.44032e-19 1.24318e-18 2.36901e-18 4.45663e-18 8.27662e-18 1.51742e-17 2.74641e-17 4.90719e-17 8.65587e-17 1.5073e-16 2.59121e-16 4.39767e-16 7.36824e-16 1.21879e-15 1.99035e-15 3.20896e-15 5.10792e-15 8.02744e-15 1.24558e-14 1.90826e-14 2.88662e-14 4.31159e-14 6.35911e-14 9.26154e-14 1.33203e-13 1.89196e-13 2.65396e-13 3.67695e-13 5.03173e-13 6.80161e-13 9.08246e-13 1.19819e-12 1.56178e-12 2.01151e-12 2.56025e-12 3.22068e-12 4.00473e-12 4.92288e-12 5.98342e-12 7.19175e-12 8.54971e-12 1.0055e-11 1.17009e-11 1.3476e-11 1.53643e-11 1.73456e-11 1.93962e-11 2.14894e-11 2.35971e-11 2.56904e-11 2.7741e-11 2.97223e-11 3.16106e-11 3.33857e-11 3.50316e-11 3.65369e-11 3.78948e-11 3.91032e-11 4.01637e-11 4.10819e-11 4.18659e-11 4.25263e-11 4.30751e-11 4.35248e-11 4.38884e-11 4.41783e-11 4.44064e-11 4.45834e-11 4.47189e-11 4.48212e-11 4.48974e-11 4.49534e-11 4.4994e-11 4.5023e-11 4.50435e-11 4.50577e-11 4.50675e-11 4.50741e-11 4.50786e-11 4.50815e-11 4.50834e-11 4.50846e-11 4.50854e-11 4.50859e-11 4.50862e-11 4.50863e-11 4.50864e-11 4.50865e-11 4.50865e-11 4.50866e-11 4.50866e-11 4.50866e-11 4.50866e-11 4.50866e-11 4.50866e-11 4.50866e-11 4.50866e-11 4.50866e-11 4.50866e-11 4.50866e-11 4.50866e-11 4.50866e-11 4.50866e-11 4.50866e-11 4.50866e-11 4.50866e-11 4.50866e-11 4.50866e-11 4.50866e-11 4.50866e-11 4.50866e-11 4.50866e-11 4.50866e-11 4.50866e-11 4.50866e-11 4.50866e-11 4.50866e-11 4.50866e-11 4.50866e-11 4.50866e-11 4.50866e-11 4.50866e-11 4.50866e-11 4.50866e-11 4.50866e-11 4.50866e-11 4.50866e-11 4.50866e-11 4.50866e-11 4.50866e-11 4.50866e-11 4.50866e-11 4.50866e-11 4.50866e-11 4.50866e-11 4.50865e-11 4.50865e-11 4.50864e-11 4.50863e-11 4.50862e-11 4.50859e-11 4.50854e-11 4.50846e-11 4.50834e-11 4.50815e-11 4.50786e-11 4.50741e-11 4.50675e-11 4.50577e-11 4.50435e-11 4.5023e-11 4.4994e-11 4.49534e-11 4.48974e-11 4.48212e-11 4.47189e-11 4.45834e-11 4.44064e-11 4.41783e-11 4.38884e-11 4.35248e-11 4.30751e-11 4.25263e-11 4.18659e-11 4.10819e-11 4.01637e-11 3.91032e-11 3.78948e-11 3.65369e-11 3.50316e-11 3.33857e-11 3.16106e-11 2.97223e-11 2.7741e-11 2.56904e-11 2.35971e-11 2.14894e-11 1.93962e-11 1.73456e-11 1.53643e-11 1.3476e-11 1.17009e-11 1.0055e-11 8.54971e-12 7.19175e-12 5.98342e-12 4.92288e-12 4.00473e-12 3.22068e-12 2.56025e-12 2.01151e-12 1.56178e-12 1.19819e-12 9.08246e-13 6.80161e-13 5.03173e-13 3.67695e-13 2.65396e-13 1.89196e-13 1.33203e-13 9.26154e-14 6.35911e-14 4.31159e-14 2.88662e-14 1.90826e-14 1.24558e-14 8.02744e-15 5.10792e-15 3.20896e-15 1.99035e-15 1.21879e-15 7.36824e-16 4.39767e-16 2.59121e-16 1.5073e-16 8.65587e-17 4.90719e-17 2.74641e-17 1.51742e-17 8.27662e-18 4.45663e-18 2.36901e-18 1.24318e-18 6.44032e-19 3.29375e-19 1.66296e-19 8.28868e-20 4.07851e-20 1.98122e-20 9.50126e-21 4.49831e-21 2.10252e-21 9.70181e-22 4.41962e-22 1.98746e-22 8.81789e-23 3.84823e-23 1.62288e-23 5.89814e-24 0 
0 1.3057e-23 3.5879e-23 8.49327e-23 1.94265e-22 4.37062e-22 9.70181e-22 2.12597e-21 4.59932e-21 9.82353e-21 2.07146e-20 4.31241e-20 8.86327e-20 1.79844e-19 3.60267e-19 7.12489e-19 1.39109e-18 2.68135e-18 5.10238e-18 9.58544e-18 1.77775e-17 3.25499e-17 5.88369e-17 1.04995e-16 1.84975e-16 3.21723e-16 5.52431e-16 9.36492e-16 1.56734e-15 2.58979e-15 4.22482e-15 6.80459e-15 1.08207e-14 1.69892e-14 2.63369e-14 4.03128e-14 6.09282e-14 9.09292e-14 1.34002e-13 1.95013e-13 2.80266e-13 3.97792e-13 5.57624e-13 7.72057e-13 1.05586e-12 1.4264e-12 1.90364e-12 2.51e-12 3.26998e-12 4.20958e-12 5.35552e-12 6.73414e-12 8.3702e-12 1.02854e-11 1.24969e-11 1.50158e-11 1.7846e-11 2.09825e-11 2.44112e-11 2.81085e-11 3.2041e-11 3.61668e-11 4.04365e-11 4.47949e-11 4.91833e-11 5.35417e-11 5.78114e-11 6.19372e-11 6.58697e-11 6.9567e-11 7.29958e-11 7.61323e-11 7.89624e-11 8.14813e-11 8.36928e-11 8.5608e-11 8.72441e-11 8.86227e-11 8.97686e-11 9.07082e-11 9.14682e-11 9.20746e-11 9.25518e-11 9.29224e-11 9.32062e-11 9.34206e-11 9.35804e-11 9.3698e-11 9.37832e-11 9.38442e-11 9.38873e-11 9.39173e-11 9.39379e-11 9.39519e-11 9.39612e-11 9.39674e-11 9.39714e-11 9.3974e-11 9.39756e-11 9.39767e-11 9.39773e-11 9.39777e-11 9.39779e-11 9.3978e-11 9.39781e-11 9.39782e-11 9.39782e-11 9.39782e-11 9.39782e-11 9.39782e-11 9.39782e-11 9.39782e-11 9.39782e-11 9.39782e-11 9.39782e-11 9.39782e-11 9.39782e-11 9.39782e-11 9.39782e-11 9.39782e-11 9.39782e-11 9.39782e-11 9.39782e-11 9.39782e-11 9.39782e-11 9.39782e-11 9.39782e-11 9.39782e-11 9.39782e-11 9.39782e-11 9.39782e-11 9.39782e-11 9.39782e-11 9.39782e-11 9.39782e-11 9.39782e-11 9.39782e-11 9.39782e-11 9.39782e-11 9.39782e-11 9.39782e-11 9.39782e-11 9.39782e-11 9.39782e-11 9.39782e-11 9.39782e-11 9.39782e-11 9.39782e-11 9.39782e-11 9.39782e-11 9.39782e-11 9.39781e-11 9.3978e-11 9.39779e-11 9.39777e-11 9.39773e-11 9.39767e-11 9.39756e-11 9.3974e-11 9.39714e-11 9.39674e-11 9.39612e-11 9.39519e-11 9.39379e-11 9.39173e-11 9.38873e-11 9.38442e-11 9.37832e-11 9.3698e-11 9.35804e-11 9.34206e-11 9.32062e-11 9.29224e-11 9.25518e-11 9.20746e-11 9.14682e-11 9.07082e-11 8.97686e-11 8.86227e-11 8.72441e-11 8.5608e-11 8.36928e-11 8.14813e-11 7.89624e-11 7.61323e-11 7.29958e-11 6.9567e-11 6.58697e-11 6.19372e-11 5.78114e-11 5.35417e-11 4.91833e-11 4.47949e-11 4.04365e-11 3.61668e-11 3.2041e-11 2.81085e-11 2.44112e-11 2.09825e-11 1.7846e-11 1.50158e-11 1.24969e-11 1.02854e-11 8.3702e-12 6.73414e-12 5.35552e-12 4.20958e-12 3.26998e-12 2.51e-12 1.90364e-12 1.4264e-12 1.05586e-12 7.72057e-13 5.57624e-13 3.97792e-13 2.80266e-13 1.95013e-13 1.34002e-13 9.09292e-14 6.09282e-14 4.03128e-14 2.63369e-14 1.69892e-14 1.08207e-14 6.80459e-15 4.22482e-15 2.58979e-15 1.56734e-15 9.36492e-16 5.52431e-16 3.21723e-16 1.84975e-16 1.04995e-16 5.88369e-17 3.25499e-17 1.77775e-17 9.58544e-18 5.10238e-18 2.68135e-18 1.39109e-18 7.12489e-19 3.60267e-19 1.79844e-19 8.86327e-20 4.31241e-20 2.07146e-20 9.82353e-21 4.59932e-21 2.12597e-21 9.70181e-22 4.37062e-22 1.94265e-22 8.49327e-23 3.5879e-23 1.3057e-23 0 
0 2.85317e-23 7.82989e-23 1.8504e-22 4.2249e-22 9.48838e-22 2.10252e-21 4.59932e-21 9.93331e-21 2.11809e-20 4.45908e-20 9.26812e-20 1.90188e-19 3.85315e-19 7.70706e-19 1.52195e-18 2.9672e-18 5.71122e-18 1.08529e-17 2.03608e-17 3.77118e-17 6.89592e-17 1.24492e-16 2.21883e-16 3.90431e-16 6.78268e-16 1.16332e-15 1.96988e-15 3.29327e-15 5.43586e-15 8.85861e-15 1.42537e-14 2.26442e-14 3.55196e-14 5.50131e-14 8.41323e-14 1.27048e-13 1.89451e-13 2.78974e-13 4.05679e-13 5.82603e-13 8.26329e-13 1.15756e-12 1.60167e-12 2.18909e-12 2.95558e-12 3.94225e-12 5.19521e-12 6.7648e-12 8.70449e-12 1.10691e-11 1.39127e-11 1.7286e-11 2.12335e-11 2.57903e-11 3.09791e-11 3.68074e-11 4.32653e-11 5.03235e-11 5.79331e-11 6.60259e-11 7.45156e-11 8.33006e-11 9.22677e-11 1.01296e-10 1.10264e-10 1.19049e-10 1.27538e-10 1.35631e-10 1.43241e-10 1.50299e-10 1.56757e-10 1.62585e-10 1.67774e-10 1.72331e-10 1.76278e-10 1.79651e-10 1.82495e-10 1.8486e-10 1.86799e-10 1.88369e-10 1.89622e-10 1.90609e-10 1.91375e-10 1.91963e-10 1.92407e-10 1.92738e-10 1.92982e-10 1.93158e-10 1.93285e-10 1.93375e-10 1.93437e-10 1.9348e-10 1.93509e-10 1.93529e-10 1.93542e-10 1.9355e-10 1.93555e-10 1.93559e-10 1.93561e-10 1.93562e-10 1.93563e-10 1.93563e-10 1.93564e-10 1.93564e-10 1.93564e-10 1.93564e-10 1.93564e-10 1.93564e-10 1.93564e-10 1.93564e-10 1.93564e-10 1.93564e-10 1.93564e-10 1.93564e-10 1.93564e-10 1.93564e-10 1.93564e-10 1.93564e-10 1.93564e-10 1.93564e-10 1.93564e-10 1.93564e-10 1.93564e-10 1.93564e-10 1.93564e-10 1.93564e-10 1.93564e-10 1.93564e-10 1.93564e-10 1.93564e-10 1.93564e-10 1.93564e-10 1.93564e-10 1.93564e-10 1.93564e-10 1.93564e-10 1.93564e-10 1.93564e-10 1.93564e-10 1.93564e-10 1.93564e-10 1.93564e-10 1.93564e-10 1.93564e-10 1.93564e-10 1.93564e-10 1.93564e-10 1.93564e-10 1.93564e-10 1.93564e-10 1.93564e-10 1.93564e-10 1.93563e-10 1.93563e-10 1.93562e-10 1.93561e-10 1.93559e-10 1.93555e-10 1.9355e-10 1.93542e-10 1.93529e-10 1.93509e-10 1.9348e-10 1.93437e-10 1.93375e-10 1.93285e-10 1.93158e-10 1.92982e-10 1.92738e-10 1.92407e-10 1.91963e-10 1.91375e-10 1.90609e-10 1.89622e-10 1.88369e-10 1.86799e-10 1.8486e-10 1.82495e-10 1.79651e-10 1.76278e-10 1.72331e-10 1.67774e-10 1.62585e-10 1.56757e-10 1.50299e-10 1.43241e-10 1.35631e-10 1.27538e-10 1.19049e-10 1.10264e-10 1.01296e-10 9.22677e-11 8.33006e-11 7.45156e-11 6.60259e-11 5.79331e-11 5.03235e-11 4.32653e-11 3.68074e-11 3.09791e-11 2.57903e-11 2.12335e-11 1.7286e-11 1.39127e-11 1.10691e-11 8.70449e-12 6.7648e-12 5.19521e-12 3.94225e-12 2.95558e-12 2.18909e-12 1.60167e-12 1.15756e-12 8.26329e-13 5.82603e-13 4.05679e-13 2.78974e-13 1.89451e-13 1.27048e-13 8.41323e-14 5.50131e-14 3.55196e-14 2.26442e-14 1.42537e-14 8.85861e-15 5.43586e-15 3.29327e-15 1.96988e-15 1.16332e-15 6.78268e-16 3.90431e-16 2.21883e-16 1.24492e-16 6.89592e-17 3.77118e-17 2.03608e-17 1.08529e-17 5.71122e-18 2.9672e-18 1.52195e-18 7.70706e-19 3.85315e-19 1.90188e-19 9.26812e-20 4.45908e-20 2.11809e-20 9.93331e-21 4.59932e-21 2.10252e-21 9.48838e-22 4.2249e-22 1.8504e-22 7.82989e-23 2.85317e-23 0 
0 6.15411e-23 1.6867e-22 3.97959e-22 9.07054e-22 2.03353e-21 4.49831e-21 9.82353e-21 2.11809e-20 4.50906e-20 9.47741e-20 1.96677e-19 4.02971e-19 8.15173e-19 1.62809e-18 3.21039e-18 6.25011e-18 1.20134e-17 2.27976e-17 4.27129e-17 7.90089e-17 1.44291e-16 2.60164e-16 4.6313e-16 8.13968e-16 1.41242e-15 2.41975e-15 4.09294e-15 6.83534e-15 1.12707e-14 1.83488e-14 2.94947e-14 4.68126e-14 7.33623e-14 1.13523e-13 1.73462e-13 2.61727e-13 3.89967e-13 5.73795e-13 8.3378e-13 1.19655e-12 1.69594e-12 2.37418e-12 3.28297e-12 4.48429e-12 6.05095e-12 8.06654e-12 1.06248e-11 1.3828e-11 1.77846e-11 2.2606e-11 2.84017e-11 3.52745e-11 4.33144e-11 5.25924e-11 6.31543e-11 7.5015e-11 8.81538e-11 1.02511e-10 1.17988e-10 1.34445e-10 1.51708e-10 1.6957e-10 1.87801e-10 2.06157e-10 2.24388e-10 2.4225e-10 2.59512e-10 2.7597e-10 2.91446e-10 3.05804e-10 3.18943e-10 3.30803e-10 3.41365e-10 3.50643e-10 3.58683e-10 3.65556e-10 3.71352e-10 3.76173e-10 3.8013e-10 3.83333e-10 3.85891e-10 3.87907e-10 3.89474e-10 3.90675e-10 3.91584e-10 3.92262e-10 3.92761e-10 3.93124e-10 3.93384e-10 3.93568e-10 3.93696e-10 3.93784e-10 3.93844e-10 3.93884e-10 3.93911e-10 3.93928e-10 3.93939e-10 3.93947e-10 3.93951e-10 3.93954e-10 3.93955e-10 3.93956e-10 3.93957e-10 3.93957e-10 3.93958e-10 3.93958e-10 3.93958e-10 3.93958e-10 3.93958e-10 3.93958e-10 3.93958e-10 3.93958e-10 3.93958e-10 3.93958e-10 3.93958e-10 3.93958e-10 3.93958e-10 3.93958e-10 3.93958e-10 3.93958e-10 3.93958e-10 3.93958e-10 3.93958e-10 3.93958e-10 3.93958e-10 3.93958e-10 3.93958e-10 3.93958e-10 3.93958e-10 3.93958e-10 3.93958e-10 3.93958e-10 3.93958e-10 3.93958e-10 3.93958e-10 3.93958e-10 3.93958e-10 3.93958e-10 3.93958e-10 3.93958e-10 3.93958e-10 3.93958e-10 3.93958e-10 3.93958e-10 3.93958e-10 3.93958e-10 3.93958e-10 3.93958e-10 3.93958e-10 3.93958e-10 3.93957e-10 3.93957e-10 3.93956e-10 3.93955e-10 3.93954e-10 3.93951e-10 3.93947e-10 3.93939e-10 3.93928e-10 3.93911e-10 3.93884e-10 3.93844e-10 3.93784e-10 3.93696e-10 3.93568e-10 3.93384e-10 3.93124e-10 3.92761e-10 3.92262e-10 3.91584e-10 3.90675e-10 3.89474e-10 3.87907e-10 3.85891e-10 3.83333e-10 3.8013e-10 3.76173e-10 3.71352e-10 3.65556e-10 3.58683e-10 3.50643e-10 3.41365e-10 3.30803e-10 3.18943e-10 3.05804e-10 2.91446e-10 2.7597e-10 2.59512e-10 2.4225e-10 2.24388e-10 2.06157e-10 1.87801e-10 1.6957e-10 1.51708e-10 1.34445e-10 1.17988e-10 1.02511e-10 8.81538e-11 7.5015e-11 6.31543e-11 5.25924e-11 4.33144e-11 3.52745e-11 2.84017e-11 2.2606e-11 1.77846e-11 1.3828e-11 1.06248e-11 8.06654e-12 6.05095e-12 4.48429e-12 3.28297e-12 2.37418e-12 1.69594e-12 1.19655e-12 8.3378e-13 5.73795e-13 3.89967e-13 2.61727e-13 1.73462e-13 1.13523e-13 7.33623e-14 4.68126e-14 2.94947e-14 1.83488e-14 1.12707e-14 6.83534e-15 4.09294e-15 2.41975e-15 1.41242e-15 8.13968e-16 4.6313e-16 2.60164e-16 1.44291e-16 7.90089e-17 4.27129e-17 2.27976e-17 1.20134e-17 6.25011e-18 3.21039e-18 1.62809e-18 8.15173e-19 4.02971e-19 1.96677e-19 9.47741e-20 4.50906e-20 2.11809e-20 9.82353e-21 4.49831e-21 2.03353e-21 9.07054e-22 3.97959e-22 1.6867e-22 6.15411e-23 0 