<?xml version="1.0"?>
<VTKFile type="ImageData" version="0.1" byte_order="LittleEndian">
  <ImageData WholeExtent="0 255 0 255 0 0" Origin="0 0 0" Spacing="1 1 1">
  <Piece Extent="0 255 0 255 0 0">
    <PointData>
      <DataArray type="Float32" Name="scalar_data" format="ascii" >0 0 0 0 0 0 0 0 0 0 0 0 0 0 0 0 0 0 0 0 0 0 0 0 0 0 0 0 0 0 0 0 0 0 0 0 0 0 0 0 0 0 0 0 0 0 0 0 0 0 0 0 0 0 0 0 0 0 0 0 0 0 0 0 0 0 0 0 0 0 0 0 0 0 0 0 0 0 0 0 0 0 0 0 0 0 0 0 0 0 0 0 0 0 0 0 0 0 0 0 0 0 0 0 0 0 0 0 0 0 0 0 0 0 0 0 0 0 0 0 0 0 0 0 0 0 0 0 0 0 0 0 0 0 0 0 0 0 0 0 0 0 0 0 0 0 0 0 0 0 0 0 0 0 0 0 0 0 0 0 0 0 0 0 0 0 0 0 0 0 0 0 0 0 0 0 0 0 0 0 0 0 0 0 0 0 0 0 0 0 0 0 0 0 0 0 0 0 0 0 0 0 0 0 0 0 0 0 0 0 0 0 0 0 0 0 0 0 0 0 0 0 0 0 0 0 0 0 0 0 0 0 0 0 0 0 0 0 0 0 0 0 0 0 0 0 0 0 0 0 0 0 0 0 0 0 
0 0 0 0 0 0 0 0 0 0 0 0 0 0 0 0 0 0 0 0 0 0 0 0 0 0 0 0 0 0 0 0 0 0 0 0 0 0 0 1.4013e-45 1.12104e-44 7.9874e-44 4.9606e-43 2.83763e-42 1.48916e-41 7.18838e-41 3.19803e-40 1.3132e-39 4.98348e-39 1.74973e-38 5.68947e-38 1.71483e-37 4.79485e-37 1.24471e-36 3.00223e-36 6.73377e-36 1.40574e-35 2.73427e-35 4.9614e-35 8.41114e-35 1.33475e-34 1.98718e-34 2.78353e-34 3.68111e-34 4.61521e-34 5.51278e-34 6.30913e-34 6.96156e-34 7.4552e-34 7.80017e-34 8.02289e-34 8.15574e-34 8.22897e-34 8.26629e-34 8.28387e-34 8.29152e-34 8.2946e-34 8.29574e-34 8.29614e-34 8.29626e-34 8.2963e-34 8.29631e-34 8.29631e-34 8.29631e-34 8.29631e-34 8.29631e-34 8.29631e-34 8.29631e-34 8.29631e-34 8.29631e-34 8.29631e-34 8.29631e-34 8.29631e-34 8.29631e-34 8.29631e-34 8.29631e-34 8.29631e-34 8.29631e-34 8.29631e-34 8.29631e-34 8.29631e-34 8.29631e-34 8.29631e-34 8.29631e-34 8.29631e-34 8.29631e-34 8.29631e-34 8.29631e-34 8.29631e-34 8.29631e-34 8.29631e-34 8.29631e-34 8.29631e-34 8.29631e-34 8.29631e-34 8.29631e-34 8.29631e-34 8.29631e-34 8.29631e-34 8.29631e-34 8.29631e-34 8.29631e-34 8.29631e-34 8.29631e-34 8.29631e-34 8.29631e-34 8.29631e-34 8.29631e-34 8.29631e-34 8.29631e-34 8.29631e-34 8.29631e-34 8.29631e-34 8.29631e-34 8.29631e-34 8.29631e-34 8.29631e-34 8.29631e-34 8.29631e-34 8.29631e-34 8.29631e-34 8.29631e-34 8.29631e-34 8.29631e-34 8.29631e-34 8.29631e-34 8.29631e-34 8.29631e-34 8.29631e-34 8.29631e-34 8.29631e-34 8.29631e-34 8.29631e-34 8.29631e-34 8.29631e-34 8.29631e-34 8.29631e-34 8.29631e-34 8.29631e-34 8.29631e-34 8.29631e-34 8.29631e-34 8.29631e-34 8.29631e-34 8.29631e-34 8.29631e-34 8.29631e-34 8.29631e-34 8.29631e-34 8.29631e-34 8.29631e-34 8.29631e-34 8.29631e-34 8.29631e-34 8.29631e-34 8.2963e-34 8.29626e-34 8.29614e-34 8.29574e-34 8.2946e-34 8.29152e-34 8.28387e-34 8.26629e-34 8.22897e-34 8.15574e-34 8.02289e-34 7.80017e-34 7.4552e-34 6.96156e-34 6.30913e-34 5.51278e-34 4.61521e-34 3.68111e-34 2.78353e-34 1.98718e-34 1.33475e-34 8.41114e-35 4.9614e-35 2.73427e-35 1.40574e-35 6.73377e-36 3.00223e-36 1.24471e-36 4.79485e-37 1.71483e-37 5.68947e-38 1.74973e-38 4.98348e-39 1.3132e-39 3.19803e-40 7.18838e-41 1.48916e-41 2.83763e-42 4.9606e-43 7.9874e-44 1.12104e-44 1.4013e-45 0 0 0 0 0 0 0 0 0 0 0 0 0 0 0 0 0 0 0 0 0 0 0 0 0 0 0 0 0 0 0 0 0 0 0 0 0 0 0 
0 0 0 0 0 0 0 0 0 0 0 0 0 0 0 0 0 0 0 0 0 0 0 0 0 0 0 0 0 0 0 0 0 0 0 0 0 0 2.8026e-45 2.8026e-44 2.0459e-43 1.32843e-42 7.89351e-42 4.31306e-41 2.17035e-40 1.00774e-39 4.32399e-39 1.71677e-38 6.31419e-38 2.15346e-37 6.81633e-37 2.00405e-36 5.47688e-36 1.39232e-35 3.29494e-35 7.26433e-35 1.49336e-34 2.86545e-34 5.13818e-34 8.62293e-34 1.3568e-33 2.00616e-33 2.7951e-33 3.68183e-33 4.60381e-33 5.49054e-33 6.27948e-33 6.92884e-33 7.42335e-33 7.77182e-33 7.9991e-33 8.1363e-33 8.213e-33 8.25269e-33 8.27172e-33 8.28016e-33 8.28364e-33 8.28496e-33 8.28542e-33 8.28558e-33 8.28562e-33 8.28564e-33 8.28564e-33 8.28564e-33 8.28564e-33 8.28564e-33 8.28564e-33 8.28564e-33 8.28564e-33 8.28564e-33 8.28564e-33 8.28564e-33 8.28564e-33 8.28564e-33 8.28564e-33 8.28564e-33 8.28564e-33 8.28564e-33 8.28564e-33 8.28564e-33 8.28564e-33 8.28564e-33 8.28564e-33 8.28564e-33 8.28564e-33 8.28564e-33 8.28564e-33 8.28564e-33 8.28564e-33 8.28564e-33 8.28564e-33 8.28564e-33 8.28564e-33 8.28564e-33 8.28564e-33 8.28564e-33 8.28564e-33 8.28564e-33 8.28564e-33 8.28564e-33 8.28564e-33 8.28564e-33 8.28564e-33 8.28564e-33 8.28564e-33 8.28564e-33 8.28564e-33 8.28564e-33 8.28564e-33 8.28564e-33 8.28564e-33 8.28564e-33 8.28564e-33 8.28564e-33 8.28564e-33 8.28564e-33 8.28564e-33 8.28564e-33 8.28564e-33 8.28564e-33 8.28564e-33 8.28564e-33 8.28564e-33 8.28564e-33 8.28564e-33 8.28564e-33 8.28564e-33 8.28564e-33 8.28564e-33 8.28564e-33 8.28564e-33 8.28564e-33 8.28564e-33 8.28564e-33 8.28564e-33 8.28564e-33 8.28564e-33 8.28564e-33 8.28564e-33 8.28564e-33 8.28564e-33 8.28564e-33 8.28564e-33 8.28564e-33 8.28564e-33 8.28564e-33 8.28564e-33 8.28564e-33 8.28564e-33 8.28564e-33 8.28564e-33 8.28564e-33 8.28564e-33 8.28564e-33 8.28564e-33 8.28562e-33 8.28558e-33 8.28542e-33 8.28496e-33 8.28364e-33 8.28016e-33 8.27172e-33 8.25269e-33 8.213e-33 8.1363e-33 7.9991e-33 7.77182e-33 7.42335e-33 6.92884e-33 6.27948e-33 5.49054e-33 4.60381e-33 3.68183e-33 2.7951e-33 2.00616e-33 1.3568e-33 8.62293e-34 5.13818e-34 2.86545e-34 1.49336e-34 7.26433e-35 3.29494e-35 1.39232e-35 5.47688e-36 2.00405e-36 6.81633e-37 2.15346e-37 6.31419e-38 1.71677e-38 4.32399e-39 1.00774e-39 2.17035e-40 4.31306e-41 7.89351e-42 1.32843e-42 2.0459e-43 2.8026e-44 2.8026e-45 0 0 0 0 0 0 0 0 0 0 0 0 0 0 0 0 0 0 0 0 0 0 0 0 0 0 0 0 0 0 0 0 0 0 0 0 0 0 
0 0 0 0 0 0 0 0 0 0 0 0 0 0 0 0 0 0 0 0 0 0 0 0 0 0 0 0 0 0 0 0 0 0 0 0 0 7.00649e-45 6.72623e-44 4.97461e-43 3.3477e-42 2.06607e-41 1.17327e-40 6.14326e-40 2.97136e-39 1.32963e-38 5.51187e-38 2.11917e-37 7.56433e-37 2.50899e-36 7.73924e-36 2.22169e-35 5.9396e-35 1.47982e-34 3.43829e-34 7.45562e-34 1.51008e-33 2.85968e-33 5.06934e-33 8.42421e-33 1.31468e-32 1.93093e-32 2.67629e-32 3.51179e-32 4.37971e-32 5.21522e-32 5.96058e-32 6.57683e-32 7.04908e-32 7.38457e-32 7.60554e-32 7.7405e-32 7.81695e-32 7.85712e-32 7.87671e-32 7.88557e-32 7.88928e-32 7.89073e-32 7.89125e-32 7.89143e-32 7.89148e-32 7.8915e-32 7.8915e-32 7.8915e-32 7.8915e-32 7.8915e-32 7.8915e-32 7.8915e-32 7.8915e-32 7.8915e-32 7.8915e-32 7.8915e-32 7.8915e-32 7.8915e-32 7.8915e-32 7.8915e-32 7.8915e-32 7.8915e-32 7.8915e-32 7.8915e-32 7.8915e-32 7.8915e-32 7.8915e-32 7.8915e-32 7.8915e-32 7.8915e-32 7.8915e-32 7.8915e-32 7.8915e-32 7.8915e-32 7.8915e-32 7.8915e-32 7.8915e-32 7.8915e-32 7.8915e-32 7.8915e-32 7.8915e-32 7.8915e-32 7.8915e-32 7.8915e-32 7.8915e-32 7.8915e-32 7.8915e-32 7.8915e-32 7.8915e-32 7.8915e-32 7.8915e-32 7.8915e-32 7.8915e-32 7.8915e-32 7.8915e-32 7.8915e-32 7.8915e-32 7.8915e-32 7.8915e-32 7.8915e-32 7.8915e-32 7.8915e-32 7.8915e-32 7.8915e-32 7.8915e-32 7.8915e-32 7.8915e-32 7.8915e-32 7.8915e-32 7.8915e-32 7.8915e-32 7.8915e-32 7.8915e-32 7.8915e-32 7.8915e-32 7.8915e-32 7.8915e-32 7.8915e-32 7.8915e-32 7.8915e-32 7.8915e-32 7.8915e-32 7.8915e-32 7.8915e-32 7.8915e-32 7.8915e-32 7.8915e-32 7.8915e-32 7.8915e-32 7.8915e-32 7.8915e-32 7.8915e-32 7.8915e-32 7.8915e-32 7.8915e-32 7.8915e-32 7.8915e-32 7.8915e-32 7.8915e-32 7.89148e-32 7.89143e-32 7.89125e-32 7.89073e-32 7.88928e-32 7.88557e-32 7.87671e-32 7.85712e-32 7.81695e-32 7.7405e-32 7.60554e-32 7.38457e-32 7.04908e-32 6.57683e-32 5.96058e-32 5.21522e-32 4.37971e-32 3.51179e-32 2.67629e-32 1.93093e-32 1.31468e-32 8.42421e-33 5.06934e-33 2.85968e-33 1.51008e-33 7.45562e-34 3.43829e-34 1.47982e-34 5.9396e-35 2.22169e-35 7.73924e-36 2.50899e-36 7.56433e-37 2.11917e-37 5.51187e-38 1.32963e-38 2.97136e-39 6.14326e-40 1.17327e-40 2.06607e-41 3.3477e-42 4.97461e-43 6.72623e-44 7.00649e-45 0 0 0 0 0 0 0 0 0 0 0 0 0 0 0 0 0 0 0 0 0 0 0 0 0 0 0 0 0 0 0 0 0 0 0 0 0 
0 0 0 0 0 0 0 0 0 0 0 0 0 0 0 0 0 0 0 0 0 0 0 0 0 0 0 0 0 0 0 0 0 0 0 1.4013e-45 1.82169e-44 1.49939e-43 1.14626e-42 7.9888e-42 5.1125e-41 3.01358e-40 1.63963e-39 8.24927e-39 3.8439e-38 1.66113e-37 6.66539e-37 2.4859e-36 8.6252e-36 2.78633e-35 8.38666e-35 2.35357e-34 6.16201e-34 1.5061e-33 3.43877e-33 7.33987e-33 1.46576e-32 2.74122e-32 4.80656e-32 7.91308e-32 1.22526e-31 1.78816e-31 2.46609e-31 3.22406e-31 4.01076e-31 4.76873e-31 5.44665e-31 6.00955e-31 6.44351e-31 6.75416e-31 6.96069e-31 7.08824e-31 7.16142e-31 7.20043e-31 7.21975e-31 7.22865e-31 7.23246e-31 7.23398e-31 7.23454e-31 7.23473e-31 7.23479e-31 7.23481e-31 7.23481e-31 7.23481e-31 7.23481e-31 7.23481e-31 7.23481e-31 7.23481e-31 7.23481e-31 7.23481e-31 7.23481e-31 7.23481e-31 7.23481e-31 7.23481e-31 7.23481e-31 7.23481e-31 7.23481e-31 7.23481e-31 7.23481e-31 7.23481e-31 7.23481e-31 7.23481e-31 7.23481e-31 7.23481e-31 7.23481e-31 7.23481e-31 7.23481e-31 7.23481e-31 7.23481e-31 7.23481e-31 7.23481e-31 7.23481e-31 7.23481e-31 7.23481e-31 7.23481e-31 7.23481e-31 7.23481e-31 7.23481e-31 7.23481e-31 7.23481e-31 7.23481e-31 7.23481e-31 7.23481e-31 7.23481e-31 7.23481e-31 7.23481e-31 7.23481e-31 7.23481e-31 7.23481e-31 7.23481e-31 7.23481e-31 7.23481e-31 7.23481e-31 7.23481e-31 7.23481e-31 7.23481e-31 7.23481e-31 7.23481e-31 7.23481e-31 7.23481e-31 7.23481e-31 7.23481e-31 7.23481e-31 7.23481e-31 7.23481e-31 7.23481e-31 7.23481e-31 7.23481e-31 7.23481e-31 7.23481e-31 7.23481e-31 7.23481e-31 7.23481e-31 7.23481e-31 7.23481e-31 7.23481e-31 7.23481e-31 7.23481e-31 7.23481e-31 7.23481e-31 7.23481e-31 7.23481e-31 7.23481e-31 7.23481e-31 7.23481e-31 7.23481e-31 7.23481e-31 7.23481e-31 7.23481e-31 7.23481e-31 7.23481e-31 7.23481e-31 7.23481e-31 7.23481e-31 7.23481e-31 7.23479e-31 7.23473e-31 7.23454e-31 7.23398e-31 7.23246e-31 7.22865e-31 7.21975e-31 7.20043e-31 7.16142e-31 7.08824e-31 6.96069e-31 6.75416e-31 6.44351e-31 6.00955e-31 5.44665e-31 4.76873e-31 4.01076e-31 3.22406e-31 2.46609e-31 1.78816e-31 1.22526e-31 7.91308e-32 4.80656e-32 2.74122e-32 1.46576e-32 7.33987e-33 3.43877e-33 1.5061e-33 6.16201e-34 2.35357e-34 8.38666e-35 2.78633e-35 8.6252e-36 2.4859e-36 6.66539e-37 1.66113e-37 3.8439e-38 8.24927e-39 1.63963e-39 3.01358e-40 5.1125e-41 7.9888e-42 1.14626e-42 1.49939e-43 1.82169e-44 1.4013e-45 0 0 0 0 0 0 0 0 0 0 0 0 0 0 0 0 0 0 0 0 0 0 0 0 0 0 0 0 0 0 0 0 0 0 0 
0 0 0 0 0 0 0 0 0 0 0 0 0 0 0 0 0 0 0 0 0 0 0 0 0 0 0 0 0 0 0 0 0 0 2.8026e-45 3.64338e-44 3.18095e-43 2.50552e-42 1.80669e-41 1.19752e-40 7.3183e-40 4.13213e-39 2.15961e-38 1.04642e-37 4.70725e-37 1.96826e-36 7.65789e-36 2.77489e-35 9.37231e-35 2.95274e-34 8.68299e-34 2.38476e-33 6.12079e-33 1.46899e-32 3.29877e-32 6.936e-32 1.36658e-31 2.52543e-31 4.38232e-31 7.15054e-31 1.09894e-30 1.59406e-30 2.18794e-30 2.85033e-30 3.53726e-30 4.19964e-30 4.79352e-30 5.28865e-30 5.67253e-30 5.94935e-30 6.13504e-30 6.25093e-30 6.31822e-30 6.3546e-30 6.37289e-30 6.38146e-30 6.3852e-30 6.38672e-30 6.38729e-30 6.38749e-30 6.38756e-30 6.38758e-30 6.38758e-30 6.38758e-30 6.38758e-30 6.38758e-30 6.38758e-30 6.38758e-30 6.38758e-30 6.38758e-30 6.38758e-30 6.38758e-30 6.38758e-30 6.38758e-30 6.38758e-30 6.38758e-30 6.38758e-30 6.38758e-30 6.38758e-30 6.38758e-30 6.38758e-30 6.38758e-30 6.38758e-30 6.38758e-30 6.38758e-30 6.38758e-30 6.38758e-30 6.38758e-30 6.38758e-30 6.38758e-30 6.38758e-30 6.38758e-30 6.38758e-30 6.38758e-30 6.38758e-30 6.38758e-30 6.38758e-30 6.38758e-30 6.38758e-30 6.38758e-30 6.38758e-30 6.38758e-30 6.38758e-30 6.38758e-30 6.38758e-30 6.38758e-30 6.38758e-30 6.38758e-30 6.38758e-30 6.38758e-30 6.38758e-30 6.38758e-30 6.38758e-30 6.38758e-30 6.38758e-30 6.38758e-30 6.38758e-30 6.38758e-30 6.38758e-30 6.38758e-30 6.38758e-30 6.38758e-30 6.38758e-30 6.38758e-30 6.38758e-30 6.38758e-30 6.38758e-30 6.38758e-30 6.38758e-30 6.38758e-30 6.38758e-30 6.38758e-30 6.38758e-30 6.38758e-30 6.38758e-30 6.38758e-30 6.38758e-30 6.38758e-30 6.38758e-30 6.38758e-30 6.38758e-30 6.38758e-30 6.38758e-30 6.38758e-30 6.38758e-30 6.38758e-30 6.38758e-30 6.38758e-30 6.38758e-30 6.38758e-30 6.38758e-30 6.38758e-30 6.38758e-30 6.38758e-30 6.38758e-30 6.38756e-30 6.38749e-30 6.38729e-30 6.38672e-30 6.3852e-30 6.38146e-30 6.37289e-30 6.3546e-30 6.31822e-30 6.25093e-30 6.13504e-30 5.94935e-30 5.67253e-30 5.28865e-30 4.79352e-30 4.19964e-30 3.53726e-30 2.85033e-30 2.18794e-30 1.59406e-30 1.09894e-30 7.15054e-31 4.38232e-31 2.52543e-31 1.36658e-31 6.936e-32 3.29877e-32 1.46899e-32 6.12079e-33 2.38476e-33 8.68299e-34 2.95274e-34 9.37231e-35 2.77489e-35 7.65789e-36 1.96826e-36 4.70725e-37 1.04642e-37 2.15961e-38 4.13213e-39 7.3183e-40 1.19752e-40 1.80669e-41 2.50552e-42 3.18095e-43 3.64338e-44 2.8026e-45 0 0 0 0 0 0 0 0 0 0 0 0 0 0 0 0 0 0 0 0 0 0 0 0 0 0 0 0 0 0 0 0 0 0 
0 0 0 0 0 0 0 0 0 0 0 0 0 0 0 0 0 0 0 0 0 0 0 0 0 0 0 0 0 0 0 0 0 7.00649e-45 7.28675e-44 6.41795e-43 5.20162e-42 3.87585e-41 2.65817e-40 1.68224e-39 9.84537e-39 5.3385e-38 2.68631e-37 1.25618e-36 5.4657e-36 2.21514e-35 8.37e-35 2.95106e-34 9.71578e-34 2.98888e-33 8.59672e-33 2.31311e-32 5.82559e-32 1.37407e-31 3.03714e-31 6.29506e-31 1.22447e-30 2.23723e-30 3.84385e-30 6.2187e-30 9.48919e-30 1.36846e-29 1.86974e-29 2.42754e-29 3.00556e-29 3.56336e-29 4.06464e-29 4.48419e-29 4.81123e-29 5.04872e-29 5.20938e-29 5.31066e-29 5.37015e-29 5.40273e-29 5.41936e-29 5.42728e-29 5.43079e-29 5.43224e-29 5.4328e-29 5.43301e-29 5.43307e-29 5.4331e-29 5.4331e-29 5.4331e-29 5.4331e-29 5.4331e-29 5.4331e-29 5.4331e-29 5.4331e-29 5.4331e-29 5.4331e-29 5.4331e-29 5.4331e-29 5.4331e-29 5.4331e-29 5.4331e-29 5.4331e-29 5.4331e-29 5.4331e-29 5.4331e-29 5.4331e-29 5.4331e-29 5.4331e-29 5.4331e-29 5.4331e-29 5.4331e-29 5.4331e-29 5.4331e-29 5.4331e-29 5.4331e-29 5.4331e-29 5.4331e-29 5.4331e-29 5.4331e-29 5.4331e-29 5.4331e-29 5.4331e-29 5.4331e-29 5.4331e-29 5.4331e-29 5.4331e-29 5.4331e-29 5.4331e-29 5.4331e-29 5.4331e-29 5.4331e-29 5.4331e-29 5.4331e-29 5.4331e-29 5.4331e-29 5.4331e-29 5.4331e-29 5.4331e-29 5.4331e-29 5.4331e-29 5.4331e-29 5.4331e-29 5.4331e-29 5.4331e-29 5.4331e-29 5.4331e-29 5.4331e-29 5.4331e-29 5.4331e-29 5.4331e-29 5.4331e-29 5.4331e-29 5.4331e-29 5.4331e-29 5.4331e-29 5.4331e-29 5.4331e-29 5.4331e-29 5.4331e-29 5.4331e-29 5.4331e-29 5.4331e-29 5.4331e-29 5.4331e-29 5.4331e-29 5.4331e-29 5.4331e-29 5.4331e-29 5.4331e-29 5.4331e-29 5.4331e-29 5.4331e-29 5.4331e-29 5.4331e-29 5.4331e-29 5.4331e-29 5.4331e-29 5.4331e-29 5.4331e-29 5.4331e-29 5.43307e-29 5.43301e-29 5.4328e-29 5.43224e-29 5.43079e-29 5.42728e-29 5.41936e-29 5.40273e-29 5.37015e-29 5.31066e-29 5.20938e-29 5.04872e-29 4.81123e-29 4.48419e-29 4.06464e-29 3.56336e-29 3.00556e-29 2.42754e-29 1.86974e-29 1.36846e-29 9.48919e-30 6.2187e-30 3.84385e-30 2.23723e-30 1.22447e-30 6.29506e-31 3.03714e-31 1.37407e-31 5.82559e-32 2.31311e-32 8.59672e-33 2.98888e-33 9.71578e-34 2.95106e-34 8.37e-35 2.21514e-35 5.4657e-36 1.25618e-36 2.68631e-37 5.3385e-38 9.84537e-39 1.68224e-39 2.65817e-40 3.87585e-41 5.20162e-42 6.41795e-43 7.28675e-44 7.00649e-45 0 0 0 0 0 0 0 0 0 0 0 0 0 0 0 0 0 0 0 0 0 0 0 0 0 0 0 0 0 0 0 0 0 
0 0 0 0 0 0 0 0 0 0 0 0 0 0 0 0 0 0 0 0 0 0 0 0 0 0 0 0 0 0 0 1.4013e-45 1.26117e-44 1.33123e-43 1.22614e-42 1.02617e-41 7.89576e-41 5.59701e-40 3.66423e-39 2.22033e-38 1.24762e-37 6.51163e-37 3.16132e-36 1.42943e-35 6.02622e-35 2.37102e-34 8.71361e-34 2.99334e-33 9.61822e-33 2.89252e-32 8.1459e-32 2.14937e-31 5.31644e-31 1.23338e-30 2.68531e-30 5.49027e-30 1.05493e-29 1.90664e-29 3.24492e-29 5.20718e-29 7.8916e-29 1.13175e-28 1.53957e-28 1.99236e-28 2.46123e-28 2.91402e-28 3.32184e-28 3.66443e-28 3.93287e-28 4.12909e-28 4.26292e-28 4.34809e-28 4.39868e-28 4.42673e-28 4.44125e-28 4.44827e-28 4.45144e-28 4.45277e-28 4.4533e-28 4.45349e-28 4.45356e-28 4.45358e-28 4.45358e-28 4.45359e-28 4.45359e-28 4.45359e-28 4.45359e-28 4.45359e-28 4.45359e-28 4.45359e-28 4.45359e-28 4.45359e-28 4.45359e-28 4.45359e-28 4.45359e-28 4.45359e-28 4.45359e-28 4.45359e-28 4.45359e-28 4.45359e-28 4.45359e-28 4.45359e-28 4.45359e-28 4.45359e-28 4.45359e-28 4.45359e-28 4.45359e-28 4.45359e-28 4.45359e-28 4.45359e-28 4.45359e-28 4.45359e-28 4.45359e-28 4.45359e-28 4.45359e-28 4.45359e-28 4.45359e-28 4.45359e-28 4.45359e-28 4.45359e-28 4.45359e-28 4.45359e-28 4.45359e-28 4.45359e-28 4.45359e-28 4.45359e-28 4.45359e-28 4.45359e-28 4.45359e-28 4.45359e-28 4.45359e-28 4.45359e-28 4.45359e-28 4.45359e-28 4.45359e-28 4.45359e-28 4.45359e-28 4.45359e-28 4.45359e-28 4.45359e-28 4.45359e-28 4.45359e-28 4.45359e-28 4.45359e-28 4.45359e-28 4.45359e-28 4.45359e-28 4.45359e-28 4.45359e-28 4.45359e-28 4.45359e-28 4.45359e-28 4.45359e-28 4.45359e-28 4.45359e-28 4.45359e-28 4.45359e-28 4.45359e-28 4.45359e-28 4.45359e-28 4.45359e-28 4.45359e-28 4.45359e-28 4.45359e-28 4.45359e-28 4.45359e-28 4.45359e-28 4.45359e-28 4.45359e-28 4.45359e-28 4.45359e-28 4.45359e-28 4.45359e-28 4.45358e-28 4.45358e-28 4.45356e-28 4.45349e-28 4.4533e-28 4.45277e-28 4.45144e-28 4.44827e-28 4.44125e-28 4.42673e-28 4.39868e-28 4.34809e-28 4.26292e-28 4.12909e-28 3.93287e-28 3.66443e-28 3.32184e-28 2.91402e-28 2.46123e-28 1.99236e-28 1.53957e-28 1.13175e-28 7.8916e-29 5.20718e-29 3.24492e-29 1.90664e-29 1.05493e-29 5.49027e-30 2.68531e-30 1.23338e-30 5.31644e-31 2.14937e-31 8.1459e-32 2.89252e-32 9.61822e-33 2.99334e-33 8.71361e-34 2.37102e-34 6.02622e-35 1.42943e-35 3.16132e-36 6.51163e-37 1.24762e-37 2.22033e-38 3.66423e-39 5.59701e-40 7.89576e-41 1.02617e-41 1.22614e-42 1.33123e-43 1.26117e-44 1.4013e-45 0 0 0 0 0 0 0 0 0 0 0 0 0 0 0 0 0 0 0 0 0 0 0 0 0 0 0 0 0 0 0 
0 0 0 0 0 0 0 0 0 0 0 0 0 0 0 0 0 0 0 0 0 0 0 0 0 0 0 0 0 0 1.4013e-45 2.24208e-44 2.35418e-43 2.22806e-42 1.92552e-41 1.52868e-40 1.11895e-39 7.57032e-39 4.7444e-38 2.75958e-37 1.4922e-36 7.5122e-36 3.52549e-35 1.54408e-34 6.31744e-34 2.41663e-33 8.64972e-33 2.89874e-32 9.10108e-32 2.67848e-31 7.39295e-31 1.91467e-30 4.65507e-30 1.06302e-29 2.28126e-29 4.60369e-29 8.74282e-29 1.56384e-28 2.6375e-28 4.19961e-28 6.32314e-28 9.01986e-28 1.22188e-27 1.57629e-27 1.94303e-27 2.29745e-27 2.61734e-27 2.88701e-27 3.09936e-27 3.25557e-27 3.36294e-27 3.4319e-27 3.47329e-27 3.49651e-27 3.50869e-27 3.51467e-27 3.51741e-27 3.51858e-27 3.51906e-27 3.51923e-27 3.51929e-27 3.51931e-27 3.51932e-27 3.51932e-27 3.51932e-27 3.51932e-27 3.51932e-27 3.51932e-27 3.51932e-27 3.51932e-27 3.51932e-27 3.51932e-27 3.51932e-27 3.51932e-27 3.51932e-27 3.51932e-27 3.51932e-27 3.51932e-27 3.51932e-27 3.51932e-27 3.51932e-27 3.51932e-27 3.51932e-27 3.51932e-27 3.51932e-27 3.51932e-27 3.51932e-27 3.51932e-27 3.51932e-27 3.51932e-27 3.51932e-27 3.51932e-27 3.51932e-27 3.51932e-27 3.51932e-27 3.51932e-27 3.51932e-27 3.51932e-27 3.51932e-27 3.51932e-27 3.51932e-27 3.51932e-27 3.51932e-27 3.51932e-27 3.51932e-27 3.51932e-27 3.51932e-27 3.51932e-27 3.51932e-27 3.51932e-27 3.51932e-27 3.51932e-27 3.51932e-27 3.51932e-27 3.51932e-27 3.51932e-27 3.51932e-27 3.51932e-27 3.51932e-27 3.51932e-27 3.51932e-27 3.51932e-27 3.51932e-27 3.51932e-27 3.51932e-27 3.51932e-27 3.51932e-27 3.51932e-27 3.51932e-27 3.51932e-27 3.51932e-27 3.51932e-27 3.51932e-27 3.51932e-27 3.51932e-27 3.51932e-27 3.51932e-27 3.51932e-27 3.51932e-27 3.51932e-27 3.51932e-27 3.51932e-27 3.51932e-27 3.51932e-27 3.51932e-27 3.51932e-27 3.51932e-27 3.51932e-27 3.51932e-27 3.51932e-27 3.51932e-27 3.51932e-27 3.51932e-27 3.51932e-27 3.51931e-27 3.51929e-27 3.51923e-27 3.51906e-27 3.51858e-27 3.51741e-27 3.51467e-27 3.50869e-27 3.49651e-27 3.47329e-27 3.4319e-27 3.36294e-27 3.25557e-27 3.09936e-27 2.88701e-27 2.61734e-27 2.29745e-27 1.94303e-27 1.57629e-27 1.22188e-27 9.01986e-28 6.32314e-28 4.19961e-28 2.6375e-28 1.56384e-28 8.74282e-29 4.60369e-29 2.28126e-29 1.06302e-29 4.65507e-30 1.91467e-30 7.39295e-31 2.67848e-31 9.10108e-32 2.89874e-32 8.64972e-33 2.41663e-33 6.31744e-34 1.54408e-34 3.52549e-35 7.5122e-36 1.4922e-36 2.75958e-37 4.7444e-38 7.57032e-39 1.11895e-39 1.52868e-40 1.92552e-41 2.22806e-42 2.35418e-43 2.24208e-44 1.4013e-45 0 0 0 0 0 0 0 0 0 0 0 0 0 0 0 0 0 0 0 0 0 0 0 0 0 0 0 0 0 0 
0 0 0 0 0 0 0 0 0 0 0 0 0 0 0 0 0 0 0 0 0 0 0 0 0 0 0 0 0 2.8026e-45 3.50325e-44 3.97969e-43 3.86478e-42 3.43921e-41 2.8149e-40 2.12569e-39 1.4848e-38 9.61473e-38 5.78293e-37 3.23622e-36 1.68753e-35 8.21023e-35 3.73116e-34 1.58544e-33 6.3046e-33 2.34801e-32 8.19543e-32 2.68249e-31 8.23822e-31 2.37507e-30 6.43089e-30 1.63612e-29 3.913e-29 8.80169e-29 1.86302e-28 3.71306e-28 6.97299e-28 1.23496e-27 2.06484e-27 3.26339e-27 4.88285e-27 6.92978e-27 9.34972e-27 1.20254e-26 1.47923e-26 1.7468e-26 1.9888e-26 2.19349e-26 2.35544e-26 2.47529e-26 2.55828e-26 2.61204e-26 2.64464e-26 2.66314e-26 2.67297e-26 2.67786e-26 2.68014e-26 2.68113e-26 2.68154e-26 2.68169e-26 2.68175e-26 2.68177e-26 2.68177e-26 2.68177e-26 2.68177e-26 2.68177e-26 2.68177e-26 2.68177e-26 2.68177e-26 2.68177e-26 2.68177e-26 2.68177e-26 2.68177e-26 2.68177e-26 2.68177e-26 2.68177e-26 2.68177e-26 2.68177e-26 2.68177e-26 2.68177e-26 2.68177e-26 2.68177e-26 2.68177e-26 2.68177e-26 2.68177e-26 2.68177e-26 2.68177e-26 2.68177e-26 2.68177e-26 2.68177e-26 2.68177e-26 2.68177e-26 2.68177e-26 2.68177e-26 2.68177e-26 2.68177e-26 2.68177e-26 2.68177e-26 2.68177e-26 2.68177e-26 2.68177e-26 2.68177e-26 2.68177e-26 2.68177e-26 2.68177e-26 2.68177e-26 2.68177e-26 2.68177e-26 2.68177e-26 2.68177e-26 2.68177e-26 2.68177e-26 2.68177e-26 2.68177e-26 2.68177e-26 2.68177e-26 2.68177e-26 2.68177e-26 2.68177e-26 2.68177e-26 2.68177e-26 2.68177e-26 2.68177e-26 2.68177e-26 2.68177e-26 2.68177e-26 2.68177e-26 2.68177e-26 2.68177e-26 2.68177e-26 2.68177e-26 2.68177e-26 2.68177e-26 2.68177e-26 2.68177e-26 2.68177e-26 2.68177e-26 2.68177e-26 2.68177e-26 2.68177e-26 2.68177e-26 2.68177e-26 2.68177e-26 2.68177e-26 2.68177e-26 2.68177e-26 2.68177e-26 2.68177e-26 2.68177e-26 2.68177e-26 2.68177e-26 2.68177e-26 2.68177e-26 2.68177e-26 2.68177e-26 2.68175e-26 2.68169e-26 2.68154e-26 2.68113e-26 2.68014e-26 2.67786e-26 2.67297e-26 2.66314e-26 2.64464e-26 2.61204e-26 2.55828e-26 2.47529e-26 2.35544e-26 2.19349e-26 1.9888e-26 1.7468e-26 1.47923e-26 1.20254e-26 9.34972e-27 6.92978e-27 4.88285e-27 3.26339e-27 2.06484e-27 1.23496e-27 6.97299e-28 3.71306e-28 1.86302e-28 8.80169e-29 3.913e-29 1.63612e-29 6.43089e-30 2.37507e-30 8.23822e-31 2.68249e-31 8.19543e-32 2.34801e-32 6.3046e-33 1.58544e-33 3.73116e-34 8.21023e-35 1.68753e-35 3.23622e-36 5.78293e-37 9.61473e-38 1.4848e-38 2.12569e-39 2.8149e-40 3.43921e-41 3.86478e-42 3.97969e-43 3.50325e-44 2.8026e-45 0 0 0 0 0 0 0 0 0 0 0 0 0 0 0 0 0 0 0 0 0 0 0 0 0 0 0 0 0 
0 0 0 0 0 0 0 0 0 0 0 0 0 0 0 0 0 0 0 0 0 0 0 0 0 0 0 0 4.2039e-45 5.60519e-44 6.38992e-43 6.38852e-42 5.85154e-41 4.93337e-40 3.84013e-39 2.76689e-38 1.84951e-37 1.1492e-36 6.64891e-36 3.58741e-35 1.80742e-34 8.51316e-34 3.75248e-33 1.54928e-32 5.99612e-32 2.1769e-31 7.41826e-31 2.3741e-30 7.13914e-30 2.01809e-29 5.36506e-29 1.34194e-28 3.15939e-28 7.00472e-28 1.46326e-27 2.88173e-27 5.35417e-27 9.393e-27 1.55751e-26 2.44409e-26 3.6351e-26 5.13373e-26 6.89974e-26 8.84865e-26 1.08626e-25 1.28115e-25 1.45776e-25 1.60762e-25 1.72672e-25 1.81538e-25 1.8772e-25 1.91759e-25 1.94231e-25 1.9565e-25 1.96412e-25 1.96797e-25 1.96979e-25 1.97059e-25 1.97093e-25 1.97106e-25 1.9711e-25 1.97112e-25 1.97113e-25 1.97113e-25 1.97113e-25 1.97113e-25 1.97113e-25 1.97113e-25 1.97113e-25 1.97113e-25 1.97113e-25 1.97113e-25 1.97113e-25 1.97113e-25 1.97113e-25 1.97113e-25 1.97113e-25 1.97113e-25 1.97113e-25 1.97113e-25 1.97113e-25 1.97113e-25 1.97113e-25 1.97113e-25 1.97113e-25 1.97113e-25 1.97113e-25 1.97113e-25 1.97113e-25 1.97113e-25 1.97113e-25 1.97113e-25 1.97113e-25 1.97113e-25 1.97113e-25 1.97113e-25 1.97113e-25 1.97113e-25 1.97113e-25 1.97113e-25 1.97113e-25 1.97113e-25 1.97113e-25 1.97113e-25 1.97113e-25 1.97113e-25 1.97113e-25 1.97113e-25 1.97113e-25 1.97113e-25 1.97113e-25 1.97113e-25 1.97113e-25 1.97113e-25 1.97113e-25 1.97113e-25 1.97113e-25 1.97113e-25 1.97113e-25 1.97113e-25 1.97113e-25 1.97113e-25 1.97113e-25 1.97113e-25 1.97113e-25 1.97113e-25 1.97113e-25 1.97113e-25 1.97113e-25 1.97113e-25 1.97113e-25 1.97113e-25 1.97113e-25 1.97113e-25 1.97113e-25 1.97113e-25 1.97113e-25 1.97113e-25 1.97113e-25 1.97113e-25 1.97113e-25 1.97113e-25 1.97113e-25 1.97113e-25 1.97113e-25 1.97113e-25 1.97113e-25 1.97113e-25 1.97113e-25 1.97113e-25 1.97113e-25 1.97113e-25 1.97113e-25 1.97113e-25 1.97112e-25 1.9711e-25 1.97106e-25 1.97093e-25 1.97059e-25 1.96979e-25 1.96797e-25 1.96412e-25 1.9565e-25 1.94231e-25 1.91759e-25 1.8772e-25 1.81538e-25 1.72672e-25 1.60762e-25 1.45776e-25 1.28115e-25 1.08626e-25 8.84865e-26 6.89974e-26 5.13373e-26 3.6351e-26 2.44409e-26 1.55751e-26 9.393e-27 5.35417e-27 2.88173e-27 1.46326e-27 7.00472e-28 3.15939e-28 1.34194e-28 5.36506e-29 2.01809e-29 7.13914e-30 2.3741e-30 7.41826e-31 2.1769e-31 5.99612e-32 1.54928e-32 3.75248e-33 8.51316e-34 1.80742e-34 3.58741e-35 6.64891e-36 1.1492e-36 1.84951e-37 2.76689e-38 3.84013e-39 4.93337e-40 5.85154e-41 6.38852e-42 6.38992e-43 5.60519e-44 4.2039e-45 0 0 0 0 0 0 0 0 0 0 0 0 0 0 0 0 0 0 0 0 0 0 0 0 0 0 0 0 
0 0 0 0 0 0 0 0 0 0 0 0 0 0 0 0 0 0 0 0 0 0 0 0 0 0 0 5.60519e-45 8.82818e-44 9.79508e-43 1.00711e-41 9.48889e-41 8.23425e-40 6.60148e-39 4.90228e-38 3.37971e-37 2.16744e-36 1.29526e-35 7.22388e-35 3.7651e-34 1.83606e-33 8.38592e-33 3.5906e-32 1.4424e-31 5.44019e-31 1.92763e-30 6.42028e-30 2.01106e-29 5.92696e-29 1.64422e-28 4.29518e-28 1.057e-27 2.45142e-27 5.36054e-27 1.10577e-26 2.15296e-26 3.95936e-26 6.88318e-26 1.13231e-25 1.76473e-25 2.60964e-25 3.6682e-25 4.91179e-25 6.28162e-25 7.69634e-25 9.06617e-25 1.03098e-24 1.13683e-24 1.22132e-24 1.28457e-24 1.32896e-24 1.3582e-24 1.37627e-24 1.38674e-24 1.39244e-24 1.39534e-24 1.39674e-24 1.39737e-24 1.39763e-24 1.39774e-24 1.39778e-24 1.39779e-24 1.39779e-24 1.3978e-24 1.3978e-24 1.3978e-24 1.3978e-24 1.3978e-24 1.3978e-24 1.3978e-24 1.3978e-24 1.3978e-24 1.3978e-24 1.3978e-24 1.3978e-24 1.3978e-24 1.3978e-24 1.3978e-24 1.3978e-24 1.3978e-24 1.3978e-24 1.3978e-24 1.3978e-24 1.3978e-24 1.3978e-24 1.3978e-24 1.3978e-24 1.3978e-24 1.3978e-24 1.3978e-24 1.3978e-24 1.3978e-24 1.3978e-24 1.3978e-24 1.3978e-24 1.3978e-24 1.3978e-24 1.3978e-24 1.3978e-24 1.3978e-24 1.3978e-24 1.3978e-24 1.3978e-24 1.3978e-24 1.3978e-24 1.3978e-24 1.3978e-24 1.3978e-24 1.3978e-24 1.3978e-24 1.3978e-24 1.3978e-24 1.3978e-24 1.3978e-24 1.3978e-24 1.3978e-24 1.3978e-24 1.3978e-24 1.3978e-24 1.3978e-24 1.3978e-24 1.3978e-24 1.3978e-24 1.3978e-24 1.3978e-24 1.3978e-24 1.3978e-24 1.3978e-24 1.3978e-24 1.3978e-24 1.3978e-24 1.3978e-24 1.3978e-24 1.3978e-24 1.3978e-24 1.3978e-24 1.3978e-24 1.3978e-24 1.3978e-24 1.3978e-24 1.3978e-24 1.3978e-24 1.3978e-24 1.3978e-24 1.3978e-24 1.3978e-24 1.3978e-24 1.3978e-24 1.3978e-24 1.3978e-24 1.3978e-24 1.3978e-24 1.3978e-24 1.39779e-24 1.39779e-24 1.39778e-24 1.39774e-24 1.39763e-24 1.39737e-24 1.39674e-24 1.39534e-24 1.39244e-24 1.38674e-24 1.37627e-24 1.3582e-24 1.32896e-24 1.28457e-24 1.22132e-24 1.13683e-24 1.03098e-24 9.06617e-25 7.69634e-25 6.28162e-25 4.91179e-25 3.6682e-25 2.60964e-25 1.76473e-25 1.13231e-25 6.88318e-26 3.95936e-26 2.15296e-26 1.10577e-26 5.36054e-27 2.45142e-27 1.057e-27 4.29518e-28 1.64422e-28 5.92696e-29 2.01106e-29 6.42028e-30 1.92763e-30 5.44019e-31 1.4424e-31 3.5906e-32 8.38592e-33 1.83606e-33 3.7651e-34 7.22388e-35 1.29526e-35 2.16744e-36 3.37971e-37 4.90228e-38 6.60148e-39 8.23425e-40 9.48889e-41 1.00711e-41 9.79508e-43 8.82818e-44 5.60519e-45 0 0 0 0 0 0 0 0 0 0 0 0 0 0 0 0 0 0 0 0 0 0 0 0 0 0 0 
0 0 0 0 0 0 0 0 0 0 0 0 0 0 0 0 0 0 0 0 0 0 0 0 0 0 8.40779e-45 1.23314e-43 1.43633e-42 1.51522e-41 1.46734e-40 1.30963e-39 1.08056e-38 8.26364e-38 5.87095e-37 3.88267e-36 2.39444e-35 1.37911e-34 7.42866e-34 3.74679e-33 1.77136e-32 7.857e-32 3.2724e-31 1.2807e-30 4.71283e-30 1.6316e-29 5.3169e-29 1.63161e-28 4.71702e-28 1.28523e-27 3.30159e-27 7.99936e-27 1.82874e-26 3.94638e-26 8.04285e-26 1.54893e-25 2.8207e-25 4.86114e-25 7.93602e-25 1.22877e-24 1.80707e-24 2.52862e-24 3.37379e-24 4.30313e-24 5.26233e-24 6.19167e-24 7.03684e-24 7.75839e-24 8.33669e-24 8.77186e-24 9.07935e-24 9.28339e-24 9.41057e-24 9.48503e-24 9.526e-24 9.54717e-24 9.55746e-24 9.56216e-24 9.56417e-24 9.56499e-24 9.5653e-24 9.56541e-24 9.56544e-24 9.56545e-24 9.56546e-24 9.56546e-24 9.56546e-24 9.56546e-24 9.56546e-24 9.56546e-24 9.56546e-24 9.56546e-24 9.56546e-24 9.56546e-24 9.56546e-24 9.56546e-24 9.56546e-24 9.56546e-24 9.56546e-24 9.56546e-24 9.56546e-24 9.56546e-24 9.56546e-24 9.56546e-24 9.56546e-24 9.56546e-24 9.56546e-24 9.56546e-24 9.56546e-24 9.56546e-24 9.56546e-24 9.56546e-24 9.56546e-24 9.56546e-24 9.56546e-24 9.56546e-24 9.56546e-24 9.56546e-24 9.56546e-24 9.56546e-24 9.56546e-24 9.56546e-24 9.56546e-24 9.56546e-24 9.56546e-24 9.56546e-24 9.56546e-24 9.56546e-24 9.56546e-24 9.56546e-24 9.56546e-24 9.56546e-24 9.56546e-24 9.56546e-24 9.56546e-24 9.56546e-24 9.56546e-24 9.56546e-24 9.56546e-24 9.56546e-24 9.56546e-24 9.56546e-24 9.56546e-24 9.56546e-24 9.56546e-24 9.56546e-24 9.56546e-24 9.56546e-24 9.56546e-24 9.56546e-24 9.56546e-24 9.56546e-24 9.56546e-24 9.56546e-24 9.56546e-24 9.56546e-24 9.56546e-24 9.56546e-24 9.56546e-24 9.56546e-24 9.56546e-24 9.56546e-24 9.56546e-24 9.56546e-24 9.56546e-24 9.56546e-24 9.56546e-24 9.56546e-24 9.56546e-24 9.56546e-24 9.56546e-24 9.56546e-24 9.56545e-24 9.56544e-24 9.56541e-24 9.5653e-24 9.56499e-24 9.56417e-24 9.56216e-24 9.55746e-24 9.54717e-24 9.526e-24 9.48503e-24 9.41057e-24 9.28339e-24 9.07935e-24 8.77186e-24 8.33669e-24 7.75839e-24 7.03684e-24 6.19167e-24 5.26233e-24 4.30313e-24 3.37379e-24 2.52862e-24 1.80707e-24 1.22877e-24 7.93602e-25 4.86114e-25 2.8207e-25 1.54893e-25 8.04285e-26 3.94638e-26 1.82874e-26 7.99936e-27 3.30159e-27 1.28523e-27 4.71702e-28 1.63161e-28 5.3169e-29 1.6316e-29 4.71283e-30 1.2807e-30 3.2724e-31 7.857e-32 1.77136e-32 3.74679e-33 7.42866e-34 1.37911e-34 2.39444e-35 3.88267e-36 5.87095e-37 8.26364e-38 1.08056e-38 1.30963e-39 1.46734e-40 1.51522e-41 1.43633e-42 1.23314e-43 8.40779e-45 0 0 0 0 0 0 0 0 0 0 0 0 0 0 0 0 0 0 0 0 0 0 0 0 0 0 