<?xml version="1.0"?>
<VTKFile type="ImageData" version="0.1" byte_order="LittleEndian">
  <ImageData WholeExtent="0 255 0 255 0 0" Origin="0 0 0" Spacing="1 1 1">
  <Piece Extent="0 255 0 255 0 0">
    <PointData>
      <DataArray type="Float32" Name="scalar_data" format="ascii" >0 0 0 0 0 0 0 0 0 0 0 0 0 0 0 0 0 0 0 0 0 0 0 0 0 0 0 0 0 0 0 0 0 0 0 0 0 0 0 0 0 0 0 0 0 0 0 0 0 0 0 0 0 0 0 0 0 0 0 0 0 0 0 0 0 0 0 0 0 0 0 0 0 0 0 0 0 0 0 0 0 0 0 0 0 0 0 0 0 0 0 0 0 0 0 0 0 0 0 0 0 0 0 0 0 0 0 0 0 0 0 0 0 0 0 0 0 0 0 0 0 0 0 0 0 0 0 0 0 0 0 0 0 0 0 0 0 0 0 0 0 0 0 0 0 0 0 0 0 0 0 0 0 0 0 0 0 0 0 0 0 0 0 0 0 0 0 0 0 0 0 0 0 0 0 0 0 0 0 0 0 0 0 0 0 0 0 0 0 0 0 0 0 0 0 0 0 0 0 0 0 0 0 0 0 0 0 0 0 0 0 0 0 0 0 0 0 0 0 0 0 0 0 0 0 0 0 0 0 0 0 0 0 0 0 0 0 0 0 0 0 0 0 0 0 0 0 0 0 0 0 0 0 0 0 0 
0 8.3582e-15 1.82074e-14 3.12626e-14 4.97134e-14 7.65302e-14 1.15861e-13 1.73555e-13 2.57871e-13 3.80429e-13 5.57478e-13 8.11601e-13 1.17395e-12 1.68719e-12 2.40931e-12 3.41854e-12 4.81961e-12 6.75165e-12 9.39806e-12 1.29987e-11 1.78648e-11 2.43972e-11 3.31075e-11 4.4644e-11 5.98212e-11 7.9654e-11 1.05396e-10 1.38585e-10 1.81086e-10 2.35147e-10 3.03449e-10 3.89164e-10 4.96005e-10 6.28285e-10 7.90956e-10 9.89655e-10 1.23072e-09 1.52123e-09 1.86894e-09 2.28232e-09 2.77046e-09 3.34299e-09 4.00996e-09 4.78171e-09 5.66866e-09 6.68113e-09 7.82907e-09 9.12182e-09 1.05678e-08 1.21742e-08 1.39469e-08 1.58897e-08 1.80046e-08 2.02912e-08 2.27469e-08 2.53663e-08 2.81413e-08 3.10613e-08 3.41131e-08 3.7281e-08 4.05473e-08 4.38921e-08 4.72943e-08 5.07312e-08 5.41799e-08 5.76169e-08 6.1019e-08 6.43638e-08 6.76301e-08 7.07981e-08 7.38499e-08 7.67699e-08 7.95449e-08 8.21642e-08 8.46199e-08 8.69066e-08 8.90215e-08 9.09643e-08 9.27369e-08 9.43433e-08 9.57893e-08 9.70821e-08 9.823e-08 9.92425e-08 1.00129e-07 1.00901e-07 1.01568e-07 1.02141e-07 1.02629e-07 1.03042e-07 1.0339e-07 1.0368e-07 1.03921e-07 1.0412e-07 1.04283e-07 1.04415e-07 1.04522e-07 1.04608e-07 1.04676e-07 1.0473e-07 1.04773e-07 1.04806e-07 1.04831e-07 1.04851e-07 1.04866e-07 1.04878e-07 1.04887e-07 1.04893e-07 1.04898e-07 1.04902e-07 1.04904e-07 1.04906e-07 1.04908e-07 1.04909e-07 1.04909e-07 1.0491e-07 1.0491e-07 1.04911e-07 1.04911e-07 1.04911e-07 1.04911e-07 1.04911e-07 1.04911e-07 1.04911e-07 1.04911e-07 1.04911e-07 1.04911e-07 1.04911e-07 1.04911e-07 1.04911e-07 1.04911e-07 1.04911e-07 1.04911e-07 1.04911e-07 1.04911e-07 1.04911e-07 1.04911e-07 1.04911e-07 1.04911e-07 1.0491e-07 1.0491e-07 1.04909e-07 1.04909e-07 1.04908e-07 1.04906e-07 1.04904e-07 1.04902e-07 1.04898e-07 1.04893e-07 1.04887e-07 1.04878e-07 1.04866e-07 1.04851e-07 1.04831e-07 1.04806e-07 1.04773e-07 1.0473e-07 1.04676e-07 1.04608e-07 1.04522e-07 1.04415e-07 1.04283e-07 1.0412e-07 1.03921e-07 1.0368e-07 1.0339e-07 1.03042e-07 1.02629e-07 1.02141e-07 1.01568e-07 1.00901e-07 1.00129e-07 9.92425e-08 9.823e-08 9.70821e-08 9.57893e-08 9.43433e-08 9.27369e-08 9.09643e-08 8.90215e-08 8.69066e-08 8.46199e-08 8.21642e-08 7.95449e-08 7.67699e-08 7.38499e-08 7.07981e-08 6.76301e-08 6.43638e-08 6.1019e-08 5.76169e-08 5.41799e-08 5.07312e-08 4.72943e-08 4.38921e-08 4.05473e-08 3.7281e-08 3.41131e-08 3.10613e-08 2.81413e-08 2.53663e-08 2.27469e-08 2.02912e-08 1.80046e-08 1.58897e-08 1.39469e-08 1.21742e-08 1.05678e-08 9.12182e-09 7.82907e-09 6.68113e-09 5.66866e-09 4.78171e-09 4.00996e-09 3.34299e-09 2.77046e-09 2.28232e-09 1.86894e-09 1.52123e-09 1.23072e-09 9.89655e-10 7.90956e-10 6.28285e-10 4.96005e-10 3.89164e-10 3.03449e-10 2.35147e-10 1.81086e-10 1.38585e-10 1.05396e-10 7.9654e-11 5.98212e-11 4.4644e-11 3.31075e-11 2.43972e-11 1.78648e-11 1.29987e-11 9.39806e-12 6.75165e-12 4.81961e-12 3.41854e-12 2.40931e-12 1.68719e-12 1.17395e-12 8.11601e-13 5.57478e-13 3.80429e-13 2.57871e-13 1.73555e-13 1.15861e-13 7.65302e-14 4.97134e-14 3.12626e-14 1.82074e-14 8.3582e-15 0 
0 1.82074e-14 3.96611e-14 6.80943e-14 1.08273e-13 1.66663e-13 2.5229e-13 3.77882e-13 5.61408e-13 8.28143e-13 1.21344e-12 1.7664e-12 2.55479e-12 3.67137e-12 5.24224e-12 7.43748e-12 1.04848e-11 1.46865e-11 2.04414e-11 2.82707e-11 3.88509e-11 5.30526e-11 7.19879e-11 9.70652e-11 1.30054e-10 1.73159e-10 2.29104e-10 3.01227e-10 3.93581e-10 5.11047e-10 6.59447e-10 8.45667e-10 1.07777e-09 1.36513e-09 1.71848e-09 2.15007e-09 2.67366e-09 3.3046e-09 4.05974e-09 4.95747e-09 6.0175e-09 7.26072e-09 8.70897e-09 1.03847e-08 1.23104e-08 1.45086e-08 1.70009e-08 1.98074e-08 2.29465e-08 2.64339e-08 3.02819e-08 3.44993e-08 3.90901e-08 4.40538e-08 4.93841e-08 5.50696e-08 6.10929e-08 6.74308e-08 7.40548e-08 8.09307e-08 8.80201e-08 9.52799e-08 1.02664e-07 1.10124e-07 1.17609e-07 1.25068e-07 1.32453e-07 1.39712e-07 1.46802e-07 1.53678e-07 1.60302e-07 1.6664e-07 1.72663e-07 1.78348e-07 1.83679e-07 1.88642e-07 1.93233e-07 1.9745e-07 2.01299e-07 2.04786e-07 2.07925e-07 2.10732e-07 2.13224e-07 2.15422e-07 2.17348e-07 2.19023e-07 2.20472e-07 2.21715e-07 2.22775e-07 2.23673e-07 2.24428e-07 2.25059e-07 2.25582e-07 2.26014e-07 2.26367e-07 2.26655e-07 2.26887e-07 2.27073e-07 2.27221e-07 2.27339e-07 2.27431e-07 2.27503e-07 2.27559e-07 2.27602e-07 2.27635e-07 2.2766e-07 2.27679e-07 2.27694e-07 2.27704e-07 2.27712e-07 2.27718e-07 2.27722e-07 2.27725e-07 2.27727e-07 2.27729e-07 2.2773e-07 2.27731e-07 2.27731e-07 2.27732e-07 2.27732e-07 2.27732e-07 2.27732e-07 2.27732e-07 2.27732e-07 2.27732e-07 2.27732e-07 2.27732e-07 2.27732e-07 2.27732e-07 2.27732e-07 2.27732e-07 2.27732e-07 2.27732e-07 2.27732e-07 2.27732e-07 2.27732e-07 2.27732e-07 2.27732e-07 2.27731e-07 2.27731e-07 2.2773e-07 2.27729e-07 2.27727e-07 2.27725e-07 2.27722e-07 2.27718e-07 2.27712e-07 2.27704e-07 2.27694e-07 2.27679e-07 2.2766e-07 2.27635e-07 2.27602e-07 2.27559e-07 2.27503e-07 2.27431e-07 2.27339e-07 2.27221e-07 2.27073e-07 2.26887e-07 2.26655e-07 2.26367e-07 2.26014e-07 2.25582e-07 2.25059e-07 2.24428e-07 2.23673e-07 2.22775e-07 2.21715e-07 2.20472e-07 2.19023e-07 2.17348e-07 2.15422e-07 2.13224e-07 2.10732e-07 2.07925e-07 2.04786e-07 2.01299e-07 1.9745e-07 1.93233e-07 1.88642e-07 1.83679e-07 1.78348e-07 1.72663e-07 1.6664e-07 1.60302e-07 1.53678e-07 1.46802e-07 1.39712e-07 1.32453e-07 1.25068e-07 1.17609e-07 1.10124e-07 1.02664e-07 9.52799e-08 8.80201e-08 8.09307e-08 7.40548e-08 6.74308e-08 6.10929e-08 5.50696e-08 4.93841e-08 4.40538e-08 3.90901e-08 3.44993e-08 3.02819e-08 2.64339e-08 2.29465e-08 1.98074e-08 1.70009e-08 1.45086e-08 1.23104e-08 1.03847e-08 8.70897e-09 7.26072e-09 6.0175e-09 4.95747e-09 4.05974e-09 3.3046e-09 2.67366e-09 2.15007e-09 1.71848e-09 1.36513e-09 1.07777e-09 8.45667e-10 6.59447e-10 5.11047e-10 3.93581e-10 3.01227e-10 2.29104e-10 1.73159e-10 1.30054e-10 9.70652e-11 7.19879e-11 5.30526e-11 3.88509e-11 2.82707e-11 2.04414e-11 1.46865e-11 1.04848e-11 7.43748e-12 5.24224e-12 3.67137e-12 2.55479e-12 1.7664e-12 1.21344e-12 8.28143e-13 5.61408e-13 3.77882e-13 2.5229e-13 1.66663e-13 1.08273e-13 6.80943e-14 3.96611e-14 1.82074e-14 0 
0 3.12626e-14 6.80943e-14 1.16899e-13 1.85852e-13 2.86037e-13 4.32929e-13 6.48345e-13 9.63079e-13 1.42044e-12 2.08099e-12 3.02885e-12 4.38006e-12 6.29349e-12 8.98503e-12 1.27459e-11 1.79657e-11 2.51622e-11 3.50174e-11 4.84234e-11 6.65374e-11 9.0849e-11 1.2326e-10 1.66179e-10 2.22632e-10 2.96389e-10 3.92107e-10 5.15491e-10 6.73469e-10 8.74381e-10 1.12818e-09 1.44663e-09 1.84352e-09 2.33483e-09 2.93894e-09 3.67674e-09 4.57175e-09 5.65016e-09 6.94079e-09 8.475e-09 1.02864e-08 1.24108e-08 1.48854e-08 1.77484e-08 2.10385e-08 2.47939e-08 2.90513e-08 3.38455e-08 3.92075e-08 4.51641e-08 5.17365e-08 5.89394e-08 6.678e-08 7.52569e-08 8.43599e-08 9.40691e-08 1.04355e-07 1.15178e-07 1.26489e-07 1.3823e-07 1.50336e-07 1.62732e-07 1.75341e-07 1.88078e-07 2.00859e-07 2.13597e-07 2.26206e-07 2.38602e-07 2.50708e-07 2.62449e-07 2.7376e-07 2.84583e-07 2.94869e-07 3.04578e-07 3.13681e-07 3.22158e-07 3.29998e-07 3.37201e-07 3.43774e-07 3.4973e-07 3.55092e-07 3.59887e-07 3.64144e-07 3.67899e-07 3.7119e-07 3.74053e-07 3.76527e-07 3.78651e-07 3.80463e-07 3.81997e-07 3.83288e-07 3.84366e-07 3.85261e-07 3.85999e-07 3.86603e-07 3.87094e-07 3.87491e-07 3.8781e-07 3.88064e-07 3.88265e-07 3.88423e-07 3.88546e-07 3.88642e-07 3.88715e-07 3.88772e-07 3.88815e-07 3.88847e-07 3.88871e-07 3.8889e-07 3.88903e-07 3.88913e-07 3.8892e-07 3.88925e-07 3.88929e-07 3.88932e-07 3.88934e-07 3.88935e-07 3.88936e-07 3.88937e-07 3.88937e-07 3.88937e-07 3.88938e-07 3.88938e-07 3.88938e-07 3.88938e-07 3.88938e-07 3.88938e-07 3.88938e-07 3.88938e-07 3.88938e-07 3.88938e-07 3.88938e-07 3.88938e-07 3.88938e-07 3.88938e-07 3.88937e-07 3.88937e-07 3.88937e-07 3.88936e-07 3.88935e-07 3.88934e-07 3.88932e-07 3.88929e-07 3.88925e-07 3.8892e-07 3.88913e-07 3.88903e-07 3.8889e-07 3.88871e-07 3.88847e-07 3.88815e-07 3.88772e-07 3.88715e-07 3.88642e-07 3.88546e-07 3.88423e-07 3.88265e-07 3.88064e-07 3.8781e-07 3.87491e-07 3.87094e-07 3.86603e-07 3.85999e-07 3.85261e-07 3.84366e-07 3.83288e-07 3.81997e-07 3.80463e-07 3.78651e-07 3.76527e-07 3.74053e-07 3.7119e-07 3.67899e-07 3.64144e-07 3.59887e-07 3.55092e-07 3.4973e-07 3.43774e-07 3.37201e-07 3.29998e-07 3.22158e-07 3.13681e-07 3.04578e-07 2.94869e-07 2.84583e-07 2.7376e-07 2.62449e-07 2.50708e-07 2.38602e-07 2.26206e-07 2.13597e-07 2.00859e-07 1.88078e-07 1.75341e-07 1.62732e-07 1.50336e-07 1.3823e-07 1.26489e-07 1.15178e-07 1.04355e-07 9.40691e-08 8.43599e-08 7.52569e-08 6.678e-08 5.89394e-08 5.17365e-08 4.51641e-08 3.92075e-08 3.38455e-08 2.90513e-08 2.47939e-08 2.10385e-08 1.77484e-08 1.48854e-08 1.24108e-08 1.02864e-08 8.475e-09 6.94079e-09 5.65016e-09 4.57175e-09 3.67674e-09 2.93894e-09 2.33483e-09 1.84352e-09 1.44663e-09 1.12818e-09 8.74381e-10 6.73469e-10 5.15491e-10 3.92107e-10 2.96389e-10 2.22632e-10 1.66179e-10 1.2326e-10 9.0849e-11 6.65374e-11 4.84234e-11 3.50174e-11 2.51622e-11 1.79657e-11 1.27459e-11 8.98503e-12 6.29349e-12 4.38006e-12 3.02885e-12 2.08099e-12 1.42044e-12 9.63079e-13 6.48345e-13 4.32929e-13 2.86037e-13 1.85852e-13 1.16899e-13 6.80943e-14 3.12626e-14 0 
0 4.97134e-14 1.08273e-13 1.85852e-13 2.95428e-13 4.54601e-13 6.87929e-13 1.03003e-12 1.52977e-12 2.25582e-12 3.30423e-12 4.80839e-12 6.95224e-12 9.98758e-12 1.42565e-11 2.02205e-11 2.84967e-11 3.99051e-11 5.55258e-11 7.67714e-11 1.05474e-10 1.43991e-10 1.95332e-10 2.6331e-10 3.52711e-10 4.69499e-10 6.21041e-10 8.16358e-10 1.06641e-09 1.38438e-09 1.786e-09 2.28987e-09 2.91778e-09 3.69499e-09 4.65054e-09 5.81744e-09 7.23285e-09 8.93813e-09 1.09788e-08 1.34044e-08 1.62681e-08 1.96262e-08 2.35376e-08 2.80627e-08 3.32624e-08 3.9197e-08 4.59247e-08 5.35e-08 6.19721e-08 7.13832e-08 8.17667e-08 9.31458e-08 1.05532e-07 1.18922e-07 1.33302e-07 1.48638e-07 1.64884e-07 1.81979e-07 1.99844e-07 2.18388e-07 2.37508e-07 2.57086e-07 2.77e-07 2.97117e-07 3.17302e-07 3.3742e-07 3.57333e-07 3.76912e-07 3.96031e-07 4.14575e-07 4.3244e-07 4.49535e-07 4.65781e-07 4.81118e-07 4.95497e-07 5.08887e-07 5.21273e-07 5.32653e-07 5.43036e-07 5.52447e-07 5.60919e-07 5.68495e-07 5.75222e-07 5.81157e-07 5.86357e-07 5.90882e-07 5.94793e-07 5.98151e-07 6.01015e-07 6.0344e-07 6.05481e-07 6.07186e-07 6.08602e-07 6.09769e-07 6.10724e-07 6.11501e-07 6.12129e-07 6.12633e-07 6.13035e-07 6.13353e-07 6.13603e-07 6.13798e-07 6.1395e-07 6.14067e-07 6.14156e-07 6.14224e-07 6.14275e-07 6.14314e-07 6.14342e-07 6.14364e-07 6.14379e-07 6.14391e-07 6.14399e-07 6.14405e-07 6.14409e-07 6.14412e-07 6.14414e-07 6.14416e-07 6.14417e-07 6.14418e-07 6.14418e-07 6.14419e-07 6.14419e-07 6.14419e-07 6.14419e-07 6.14419e-07 6.14419e-07 6.14419e-07 6.14419e-07 6.14419e-07 6.14419e-07 6.14419e-07 6.14419e-07 6.14419e-07 6.14419e-07 6.14418e-07 6.14418e-07 6.14417e-07 6.14416e-07 6.14414e-07 6.14412e-07 6.14409e-07 6.14405e-07 6.14399e-07 6.14391e-07 6.14379e-07 6.14364e-07 6.14342e-07 6.14314e-07 6.14275e-07 6.14224e-07 6.14156e-07 6.14067e-07 6.1395e-07 6.13798e-07 6.13603e-07 6.13353e-07 6.13035e-07 6.12633e-07 6.12129e-07 6.11501e-07 6.10724e-07 6.09769e-07 6.08602e-07 6.07186e-07 6.05481e-07 6.0344e-07 6.01015e-07 5.98151e-07 5.94793e-07 5.90882e-07 5.86357e-07 5.81157e-07 5.75222e-07 5.68495e-07 5.60919e-07 5.52447e-07 5.43036e-07 5.32653e-07 5.21273e-07 5.08887e-07 4.95497e-07 4.81118e-07 4.65781e-07 4.49535e-07 4.3244e-07 4.14575e-07 3.96031e-07 3.76912e-07 3.57333e-07 3.3742e-07 3.17302e-07 2.97117e-07 2.77e-07 2.57086e-07 2.37508e-07 2.18388e-07 1.99844e-07 1.81979e-07 1.64884e-07 1.48638e-07 1.33302e-07 1.18922e-07 1.05532e-07 9.31458e-08 8.17667e-08 7.13832e-08 6.19721e-08 5.35e-08 4.59247e-08 3.9197e-08 3.32624e-08 2.80627e-08 2.35376e-08 1.96262e-08 1.62681e-08 1.34044e-08 1.09788e-08 8.93813e-09 7.23285e-09 5.81744e-09 4.65054e-09 3.69499e-09 2.91778e-09 2.28987e-09 1.786e-09 1.38438e-09 1.06641e-09 8.16358e-10 6.21041e-10 4.69499e-10 3.52711e-10 2.6331e-10 1.95332e-10 1.43991e-10 1.05474e-10 7.67714e-11 5.55258e-11 3.99051e-11 2.84967e-11 2.02205e-11 1.42565e-11 9.98758e-12 6.95224e-12 4.80839e-12 3.30423e-12 2.25582e-12 1.52977e-12 1.03003e-12 6.87929e-13 4.54601e-13 2.95428e-13 1.85852e-13 1.08273e-13 4.97134e-14 0 
0 7.65302e-14 1.66663e-13 2.86037e-13 4.54601e-13 6.99398e-13 1.05815e-12 1.58403e-12 2.35205e-12 3.46765e-12 5.07823e-12 7.38846e-12 1.06805e-11 1.53406e-11 2.18935e-11 3.10463e-11 4.37455e-11 6.12477e-11 8.5208e-11 1.1779e-10 1.61801e-10 2.20852e-10 2.9955e-10 4.03734e-10 5.4073e-10 7.19667e-10 9.51817e-10 1.25099e-09 1.63394e-09 2.12084e-09 2.73576e-09 3.50714e-09 4.46828e-09 5.65782e-09 7.12015e-09 8.90571e-09 1.10713e-08 1.36801e-08 1.68018e-08 2.05119e-08 2.48916e-08 3.00272e-08 3.60082e-08 4.29271e-08 5.0877e-08 5.99498e-08 7.02343e-08 8.18138e-08 9.47633e-08 1.09147e-07 1.25017e-07 1.42407e-07 1.61334e-07 1.81797e-07 2.03769e-07 2.27202e-07 2.52026e-07 2.78145e-07 3.0544e-07 3.33772e-07 3.62983e-07 3.92894e-07 4.23317e-07 4.54051e-07 4.8489e-07 5.15624e-07 5.46047e-07 5.75959e-07 6.05169e-07 6.33502e-07 6.60797e-07 6.86915e-07 7.11739e-07 7.35173e-07 7.57145e-07 7.77607e-07 7.96535e-07 8.13925e-07 8.29794e-07 8.44178e-07 8.57128e-07 8.68707e-07 8.78992e-07 8.88064e-07 8.96014e-07 9.02933e-07 9.08914e-07 9.1405e-07 9.1843e-07 9.2214e-07 9.25261e-07 9.2787e-07 9.30036e-07 9.31821e-07 9.33284e-07 9.34473e-07 9.35434e-07 9.36206e-07 9.36821e-07 9.37308e-07 9.37691e-07 9.3799e-07 9.38222e-07 9.38401e-07 9.38538e-07 9.38642e-07 9.38721e-07 9.3878e-07 9.38824e-07 9.38856e-07 9.3888e-07 9.38898e-07 9.3891e-07 9.3892e-07 9.38926e-07 9.38931e-07 9.38934e-07 9.38936e-07 9.38938e-07 9.38939e-07 9.3894e-07 9.38941e-07 9.38941e-07 9.38941e-07 9.38941e-07 9.38941e-07 9.38941e-07 9.38941e-07 9.38941e-07 9.38941e-07 9.38941e-07 9.38941e-07 9.38941e-07 9.38941e-07 9.38941e-07 9.3894e-07 9.38939e-07 9.38938e-07 9.38936e-07 9.38934e-07 9.38931e-07 9.38926e-07 9.3892e-07 9.3891e-07 9.38898e-07 9.3888e-07 9.38856e-07 9.38824e-07 9.3878e-07 9.38721e-07 9.38642e-07 9.38538e-07 9.38401e-07 9.38222e-07 9.3799e-07 9.37691e-07 9.37308e-07 9.36821e-07 9.36206e-07 9.35434e-07 9.34473e-07 9.33284e-07 9.31821e-07 9.30036e-07 9.2787e-07 9.25261e-07 9.2214e-07 9.1843e-07 9.1405e-07 9.08914e-07 9.02933e-07 8.96014e-07 8.88064e-07 8.78992e-07 8.68707e-07 8.57128e-07 8.44178e-07 8.29794e-07 8.13925e-07 7.96535e-07 7.77607e-07 7.57145e-07 7.35173e-07 7.11739e-07 6.86915e-07 6.60797e-07 6.33502e-07 6.05169e-07 5.75959e-07 5.46047e-07 5.15624e-07 4.8489e-07 4.54051e-07 4.23317e-07 3.92894e-07 3.62983e-07 3.33772e-07 3.0544e-07 2.78145e-07 2.52026e-07 2.27202e-07 2.03769e-07 1.81797e-07 1.61334e-07 1.42407e-07 1.25017e-07 1.09147e-07 9.47633e-08 8.18138e-08 7.02343e-08 5.99498e-08 5.0877e-08 4.29271e-08 3.60082e-08 3.00272e-08 2.48916e-08 2.05119e-08 1.68018e-08 1.36801e-08 1.10713e-08 8.90571e-09 7.12015e-09 5.65782e-09 4.46828e-09 3.50714e-09 2.73576e-09 2.12084e-09 1.63394e-09 1.25099e-09 9.51817e-10 7.19667e-10 5.4073e-10 4.03734e-10 2.9955e-10 2.20852e-10 1.61801e-10 1.1779e-10 8.5208e-11 6.12477e-11 4.37455e-11 3.10463e-11 2.18935e-11 1.53406e-11 1.06805e-11 7.38846e-12 5.07823e-12 3.46765e-12 2.35205e-12 1.58403e-12 1.05815e-12 6.99398e-13 4.54601e-13 2.86037e-13 1.66663e-13 7.65302e-14 0 
0 1.15861e-13 2.5229e-13 4.32929e-13 6.87929e-13 1.05815e-12 1.60058e-12 2.39551e-12 3.55618e-12 5.24176e-12 7.67469e-12 1.11638e-11 1.61346e-11 2.31697e-11 3.30601e-11 4.68721e-11 6.60321e-11 9.24333e-11 1.2857e-10 1.77701e-10 2.44054e-10 3.33065e-10 4.51674e-10 6.08665e-10 8.15068e-10 1.08462e-09 1.43428e-09 1.88481e-09 2.46142e-09 3.19446e-09 4.1201e-09 5.2811e-09 6.72753e-09 8.51746e-09 1.07176e-08 1.34037e-08 1.66612e-08 2.05849e-08 2.52795e-08 3.08584e-08 3.74437e-08 4.51645e-08 5.41558e-08 6.45561e-08 7.6505e-08 9.01408e-08 1.05597e-07 1.22997e-07 1.42455e-07 1.64067e-07 1.8791e-07 2.14036e-07 2.42471e-07 2.73209e-07 3.06214e-07 3.41414e-07 3.787e-07 4.1793e-07 4.58926e-07 5.01479e-07 5.4535e-07 5.90274e-07 6.35965e-07 6.82123e-07 7.28437e-07 7.74595e-07 8.20287e-07 8.6521e-07 9.09081e-07 9.51634e-07 9.9263e-07 1.03186e-06 1.06915e-06 1.10435e-06 1.13735e-06 1.16809e-06 1.19652e-06 1.22265e-06 1.24649e-06 1.26811e-06 1.28756e-06 1.30496e-06 1.32042e-06 1.33406e-06 1.346e-06 1.3564e-06 1.3654e-06 1.37312e-06 1.3797e-06 1.38528e-06 1.38998e-06 1.3939e-06 1.39716e-06 1.39984e-06 1.40204e-06 1.40383e-06 1.40528e-06 1.40644e-06 1.40737e-06 1.4081e-06 1.40868e-06 1.40913e-06 1.40948e-06 1.40975e-06 1.40995e-06 1.41011e-06 1.41023e-06 1.41032e-06 1.41038e-06 1.41043e-06 1.41047e-06 1.41049e-06 1.41051e-06 1.41053e-06 1.41054e-06 1.41054e-06 1.41055e-06 1.41055e-06 1.41056e-06 1.41056e-06 1.41056e-06 1.41056e-06 1.41056e-06 1.41056e-06 1.41056e-06 1.41056e-06 1.41056e-06 1.41056e-06 1.41056e-06 1.41056e-06 1.41056e-06 1.41056e-06 1.41056e-06 1.41056e-06 1.41056e-06 1.41056e-06 1.41056e-06 1.41056e-06 1.41055e-06 1.41055e-06 1.41054e-06 1.41054e-06 1.41053e-06 1.41051e-06 1.41049e-06 1.41047e-06 1.41043e-06 1.41038e-06 1.41032e-06 1.41023e-06 1.41011e-06 1.40995e-06 1.40975e-06 1.40948e-06 1.40913e-06 1.40868e-06 1.4081e-06 1.40737e-06 1.40644e-06 1.40528e-06 1.40383e-06 1.40204e-06 1.39984e-06 1.39716e-06 1.3939e-06 1.38998e-06 1.38528e-06 1.3797e-06 1.37312e-06 1.3654e-06 1.3564e-06 1.346e-06 1.33406e-06 1.32042e-06 1.30496e-06 1.28756e-06 1.26811e-06 1.24649e-06 1.22265e-06 1.19652e-06 1.16809e-06 1.13735e-06 1.10435e-06 1.06915e-06 1.03186e-06 9.9263e-07 9.51634e-07 9.09081e-07 8.6521e-07 8.20287e-07 7.74595e-07 7.28437e-07 6.82123e-07 6.35965e-07 5.90274e-07 5.4535e-07 5.01479e-07 4.58926e-07 4.1793e-07 3.787e-07 3.41414e-07 3.06214e-07 2.73209e-07 2.42471e-07 2.14036e-07 1.8791e-07 1.64067e-07 1.42455e-07 1.22997e-07 1.05597e-07 9.01408e-08 7.6505e-08 6.45561e-08 5.41558e-08 4.51645e-08 3.74437e-08 3.08584e-08 2.52795e-08 2.05849e-08 1.66612e-08 1.34037e-08 1.07176e-08 8.51746e-09 6.72753e-09 5.2811e-09 4.1201e-09 3.19446e-09 2.46142e-09 1.88481e-09 1.43428e-09 1.08462e-09 8.15068e-10 6.08665e-10 4.51674e-10 3.33065e-10 2.44054e-10 1.77701e-10 1.2857e-10 9.24333e-11 6.60321e-11 4.68721e-11 3.30601e-11 2.31697e-11 1.61346e-11 1.11638e-11 7.67469e-12 5.24176e-12 3.55618e-12 2.39551e-12 1.60058e-12 1.05815e-12 6.87929e-13 4.32929e-13 2.5229e-13 1.15861e-13 0 
0 1.73555e-13 3.77882e-13 6.48345e-13 1.03003e-12 1.58403e-12 2.39551e-12 3.58443e-12 5.31996e-12 7.83981e-12 1.14761e-11 1.66897e-11 2.4116e-11 3.4624e-11 4.93938e-11 7.00157e-11 9.86167e-11 1.3802e-10 1.91942e-10 2.65241e-10 3.64215e-10 4.96964e-10 6.73824e-10 9.07877e-10 1.21555e-09 1.61728e-09 2.13832e-09 2.80957e-09 3.66856e-09 4.76041e-09 6.13895e-09 7.86776e-09 1.00213e-08 1.2686e-08 1.59609e-08 1.99587e-08 2.48063e-08 3.06448e-08 3.76295e-08 4.59291e-08 5.57249e-08 6.72088e-08 8.05812e-08 9.60476e-08 1.13816e-07 1.3409e-07 1.5707e-07 1.82938e-07 2.11864e-07 2.4399e-07 2.79429e-07 3.1826e-07 3.60521e-07 4.06203e-07 4.55252e-07 5.07559e-07 5.62966e-07 6.2126e-07 6.82176e-07 7.45405e-07 8.10589e-07 8.77338e-07 9.45226e-07 1.01381e-06 1.08262e-06 1.1512e-06 1.21909e-06 1.28584e-06 1.35102e-06 1.41425e-06 1.47517e-06 1.53346e-06 1.58887e-06 1.64118e-06 1.69023e-06 1.73591e-06 1.77817e-06 1.817e-06 1.85244e-06 1.88457e-06 1.91349e-06 1.93936e-06 1.96234e-06 1.98261e-06 2.00038e-06 2.01585e-06 2.02922e-06 2.0407e-06 2.0505e-06 2.0588e-06 2.06578e-06 2.07162e-06 2.07647e-06 2.08047e-06 2.08374e-06 2.08641e-06 2.08856e-06 2.09029e-06 2.09167e-06 2.09276e-06 2.09362e-06 2.09429e-06 2.09481e-06 2.09521e-06 2.09552e-06 2.09576e-06 2.09593e-06 2.09607e-06 2.09616e-06 2.09624e-06 2.09629e-06 2.09633e-06 2.09636e-06 2.09638e-06 2.09639e-06 2.09641e-06 2.09641e-06 2.09642e-06 2.09642e-06 2.09642e-06 2.09643e-06 2.09643e-06 2.09643e-06 2.09643e-06 2.09643e-06 2.09643e-06 2.09643e-06 2.09643e-06 2.09643e-06 2.09643e-06 2.09643e-06 2.09643e-06 2.09643e-06 2.09643e-06 2.09643e-06 2.09643e-06 2.09642e-06 2.09642e-06 2.09642e-06 2.09641e-06 2.09641e-06 2.09639e-06 2.09638e-06 2.09636e-06 2.09633e-06 2.09629e-06 2.09624e-06 2.09616e-06 2.09607e-06 2.09593e-06 2.09576e-06 2.09552e-06 2.09521e-06 2.09481e-06 2.09429e-06 2.09362e-06 2.09276e-06 2.09167e-06 2.09029e-06 2.08856e-06 2.08641e-06 2.08374e-06 2.08047e-06 2.07647e-06 2.07162e-06 2.06578e-06 2.0588e-06 2.0505e-06 2.0407e-06 2.02922e-06 2.01585e-06 2.00038e-06 1.98261e-06 1.96234e-06 1.93936e-06 1.91349e-06 1.88457e-06 1.85244e-06 1.817e-06 1.77817e-06 1.73591e-06 1.69023e-06 1.64118e-06 1.58887e-06 1.53346e-06 1.47517e-06 1.41425e-06 1.35102e-06 1.28584e-06 1.21909e-06 1.1512e-06 1.08262e-06 1.01381e-06 9.45226e-07 8.77338e-07 8.10589e-07 7.45405e-07 6.82176e-07 6.2126e-07 5.62966e-07 5.07559e-07 4.55252e-07 4.06203e-07 3.60521e-07 3.1826e-07 2.79429e-07 2.4399e-07 2.11864e-07 1.82938e-07 1.5707e-07 1.3409e-07 1.13816e-07 9.60476e-08 8.05812e-08 6.72088e-08 5.57249e-08 4.59291e-08 3.76295e-08 3.06448e-08 2.48063e-08 1.99587e-08 1.59609e-08 1.2686e-08 1.00213e-08 7.86776e-09 6.13895e-09 4.76041e-09 3.66856e-09 2.80957e-09 2.13832e-09 1.61728e-09 1.21555e-09 9.07877e-10 6.73824e-10 4.96964e-10 3.64215e-10 2.65241e-10 1.91942e-10 1.3802e-10 9.86167e-11 7.00157e-11 4.93938e-11 3.4624e-11 2.4116e-11 1.66897e-11 1.14761e-11 7.83981e-12 5.31996e-12 3.58443e-12 2.39551e-12 1.58403e-12 1.03003e-12 6.48345e-13 3.77882e-13 1.73555e-13 0 
0 2.57871e-13 5.61408e-13 9.63079e-13 1.52977e-12 2.35205e-12 3.55618e-12 5.31996e-12 7.89405e-12 1.16306e-11 1.70213e-11 2.47488e-11 3.57535e-11 5.13216e-11 7.31992e-11 1.03739e-10 1.46087e-10 2.04418e-10 2.84227e-10 3.92697e-10 5.39133e-10 7.35507e-10 9.97087e-10 1.3432e-09 1.7981e-09 2.39198e-09 3.16211e-09 4.15413e-09 5.42338e-09 7.0365e-09 9.07287e-09 1.16263e-08 1.48067e-08 1.87414e-08 2.35766e-08 2.94784e-08 3.6634e-08 4.52512e-08 5.55589e-08 6.78059e-08 8.22593e-08 9.92018e-08 1.18929e-07 1.41743e-07 1.67949e-07 1.97851e-07 2.31739e-07 2.69885e-07 3.12536e-07 3.59903e-07 4.12152e-07 4.69399e-07 5.31698e-07 5.99039e-07 6.71339e-07 7.48439e-07 8.30105e-07 9.16023e-07 1.00581e-06 1.09899e-06 1.19506e-06 1.29343e-06 1.39348e-06 1.49456e-06 1.59597e-06 1.69704e-06 1.79709e-06 1.89546e-06 1.99153e-06 2.08472e-06 2.1745e-06 2.26042e-06 2.34209e-06 2.41919e-06 2.49149e-06 2.55883e-06 2.62113e-06 2.67837e-06 2.73062e-06 2.77799e-06 2.82064e-06 2.85879e-06 2.89267e-06 2.92258e-06 2.94878e-06 2.9716e-06 2.99132e-06 3.00827e-06 3.02272e-06 3.03497e-06 3.04527e-06 3.05389e-06 3.06105e-06 3.06695e-06 3.07178e-06 3.07572e-06 3.0789e-06 3.08145e-06 3.08349e-06 3.0851e-06 3.08637e-06 3.08736e-06 3.08813e-06 3.08873e-06 3.08918e-06 3.08953e-06 3.08979e-06 3.08999e-06 3.09013e-06 3.09024e-06 3.09032e-06 3.09038e-06 3.09042e-06 3.09045e-06 3.09047e-06 3.09049e-06 3.0905e-06 3.09051e-06 3.09051e-06 3.09052e-06 3.09052e-06 3.09052e-06 3.09052e-06 3.09052e-06 3.09052e-06 3.09052e-06 3.09052e-06 3.09053e-06 3.09053e-06 3.09052e-06 3.09052e-06 3.09052e-06 3.09052e-06 3.09052e-06 3.09052e-06 3.09052e-06 3.09052e-06 3.09051e-06 3.09051e-06 3.0905e-06 3.09049e-06 3.09047e-06 3.09045e-06 3.09042e-06 3.09038e-06 3.09032e-06 3.09024e-06 3.09013e-06 3.08999e-06 3.08979e-06 3.08953e-06 3.08918e-06 3.08873e-06 3.08813e-06 3.08736e-06 3.08637e-06 3.0851e-06 3.08349e-06 3.08145e-06 3.0789e-06 3.07572e-06 3.07178e-06 3.06695e-06 3.06105e-06 3.05389e-06 3.04527e-06 3.03497e-06 3.02272e-06 3.00827e-06 2.99132e-06 2.9716e-06 2.94878e-06 2.92258e-06 2.89267e-06 2.85879e-06 2.82064e-06 2.77799e-06 2.73062e-06 2.67837e-06 2.62113e-06 2.55883e-06 2.49149e-06 2.41919e-06 2.34209e-06 2.26042e-06 2.1745e-06 2.08472e-06 1.99153e-06 1.89546e-06 1.79709e-06 1.69704e-06 1.59597e-06 1.49456e-06 1.39348e-06 1.29343e-06 1.19506e-06 1.09899e-06 1.00581e-06 9.16023e-07 8.30105e-07 7.48439e-07 6.71339e-07 5.99039e-07 5.31698e-07 4.69399e-07 4.12152e-07 3.59903e-07 3.12536e-07 2.69885e-07 2.31739e-07 1.97851e-07 1.67949e-07 1.41743e-07 1.18929e-07 9.92018e-08 8.22593e-08 6.78059e-08 5.55589e-08 4.52512e-08 3.6634e-08 2.94784e-08 2.35766e-08 1.87414e-08 1.48067e-08 1.16263e-08 9.07287e-09 7.0365e-09 5.42338e-09 4.15413e-09 3.16211e-09 2.39198e-09 1.7981e-09 1.3432e-09 9.97087e-10 7.35507e-10 5.39133e-10 3.92697e-10 2.84227e-10 2.04418e-10 1.46087e-10 1.03739e-10 7.31992e-11 5.13216e-11 3.57535e-11 2.47488e-11 1.70213e-11 1.16306e-11 7.89405e-12 5.31996e-12 3.55618e-12 2.35205e-12 1.52977e-12 9.63079e-13 5.61408e-13 2.57871e-13 0 
0 3.80429e-13 8.28143e-13 1.42044e-12 2.25582e-12 3.46765e-12 5.24176e-12 7.83981e-12 1.16306e-11 1.71319e-11 2.5067e-11 3.64394e-11 5.26313e-11 7.55328e-11 1.0771e-10 1.52617e-10 2.14877e-10 3.00617e-10 4.17907e-10 5.77286e-10 7.92414e-10 1.08085e-09 1.46501e-09 1.97321e-09 2.64105e-09 3.51278e-09 4.64306e-09 6.09875e-09 7.96101e-09 1.03274e-08 1.33143e-08 1.70592e-08 2.17229e-08 2.7492e-08 3.45805e-08 4.32318e-08 5.37195e-08 6.63482e-08 8.14528e-08 9.93974e-08 1.20573e-07 1.45392e-07 1.74288e-07 2.07703e-07 2.46084e-07 2.89874e-07 3.39496e-07 3.95351e-07 4.57798e-07 5.27145e-07 6.03635e-07 6.87437e-07 7.7863e-07 8.77199e-07 9.83023e-07 1.09587e-06 1.21539e-06 1.34113e-06 1.47253e-06 1.6089e-06 1.74949e-06 1.89345e-06 2.03986e-06 2.18777e-06 2.33618e-06 2.48408e-06 2.63049e-06 2.77445e-06 2.91504e-06 3.05142e-06 3.18281e-06 3.30855e-06 3.42808e-06 3.54092e-06 3.64675e-06 3.74531e-06 3.83651e-06 3.92031e-06 3.9968e-06 4.06615e-06 4.12859e-06 4.18445e-06 4.23407e-06 4.27786e-06 4.31624e-06 4.34966e-06 4.37855e-06 4.40337e-06 4.42455e-06 4.44249e-06 4.4576e-06 4.47023e-06 4.48071e-06 4.48936e-06 4.49645e-06 4.50222e-06 4.50689e-06 4.51063e-06 4.51362e-06 4.51598e-06 4.51785e-06 4.5193e-06 4.52043e-06 4.5213e-06 4.52197e-06 4.52248e-06 4.52286e-06 4.52315e-06 4.52337e-06 4.52353e-06 4.52364e-06 4.52373e-06 4.52379e-06 4.52384e-06 4.52387e-06 4.52389e-06 4.52391e-06 4.52392e-06 4.52393e-06 4.52393e-06 4.52394e-06 4.52394e-06 4.52394e-06 4.52394e-06 4.52394e-06 4.52394e-06 4.52394e-06 4.52394e-06 4.52394e-06 4.52394e-06 4.52394e-06 4.52394e-06 4.52394e-06 4.52394e-06 4.52394e-06 4.52394e-06 4.52393e-06 4.52393e-06 4.52392e-06 4.52391e-06 4.52389e-06 4.52387e-06 4.52384e-06 4.52379e-06 4.52373e-06 4.52364e-06 4.52353e-06 4.52337e-06 4.52315e-06 4.52286e-06 4.52248e-06 4.52197e-06 4.5213e-06 4.52043e-06 4.5193e-06 4.51785e-06 4.51598e-06 4.51362e-06 4.51063e-06 4.50689e-06 4.50222e-06 4.49645e-06 4.48936e-06 4.48071e-06 4.47023e-06 4.4576e-06 4.44249e-06 4.42455e-06 4.40337e-06 4.37855e-06 4.34966e-06 4.31624e-06 4.27786e-06 4.23407e-06 4.18445e-06 4.12859e-06 4.06615e-06 3.9968e-06 3.92031e-06 3.83651e-06 3.74531e-06 3.64675e-06 3.54092e-06 3.42808e-06 3.30855e-06 3.18281e-06 3.05142e-06 2.91504e-06 2.77445e-06 2.63049e-06 2.48408e-06 2.33618e-06 2.18777e-06 2.03986e-06 1.89345e-06 1.74949e-06 1.6089e-06 1.47253e-06 1.34113e-06 1.21539e-06 1.09587e-06 9.83023e-07 8.77199e-07 7.7863e-07 6.87437e-07 6.03635e-07 5.27145e-07 4.57798e-07 3.95351e-07 3.39496e-07 2.89874e-07 2.46084e-07 2.07703e-07 1.74288e-07 1.45392e-07 1.20573e-07 9.93974e-08 8.14528e-08 6.63482e-08 5.37195e-08 4.32318e-08 3.45805e-08 2.7492e-08 2.17229e-08 1.70592e-08 1.33143e-08 1.03274e-08 7.96101e-09 6.09875e-09 4.64306e-09 3.51278e-09 2.64105e-09 1.97321e-09 1.46501e-09 1.08085e-09 7.92414e-10 5.77286e-10 4.17907e-10 3.00617e-10 2.14877e-10 1.52617e-10 1.0771e-10 7.55328e-11 5.26313e-11 3.64394e-11 2.5067e-11 1.71319e-11 1.16306e-11 7.83981e-12 5.24176e-12 3.46765e-12 2.25582e-12 1.42044e-12 8.28143e-13 3.80429e-13 0 