<?xml version="1.0"?>
<VTKFile type="ImageData" version="0.1" byte_order="LittleEndian">
  <ImageData WholeExtent="0 255 0 255 0 0" Origin="0 0 0" Spacing="1 1 1">
  <Piece Extent="0 255 0 255 0 0">
    <PointData>
      <DataArray type="Float32" Name="scalar_data" format="ascii" >0 0 0 0 0 0 0 0 0 0 0 0 0 0 0 0 0 0 0 0 0 0 0 0 0 0 0 0 0 0 0 0 0 0 0 0 0 0 0 0 0 0 0 0 0 0 0 0 0 0 0 0 0 0 0 0 0 0 0 0 0 0 0 0 0 0 0 0 0 0 0 0 0 0 0 0 0 0 0 0 0 0 0 0 0 0 0 0 0 0 0 0 0 0 0 0 0 0 0 0 0 0 0 0 0 0 0 0 0 0 0 0 0 0 0 0 0 0 0 0 0 0 0 0 0 0 0 0 0 0 0 0 0 0 0 0 0 0 0 0 0 0 0 0 0 0 0 0 0 0 0 0 0 0 0 0 0 0 0 0 0 0 0 0 0 0 0 0 0 0 0 0 0 0 0 0 0 0 0 0 0 0 0 0 0 0 0 0 0 0 0 0 0 0 0 0 0 0 0 0 0 0 0 0 0 0 0 0 0 0 0 0 0 0 0 0 0 0 0 0 0 0 0 0 0 0 0 0 0 0 0 0 0 0 0 0 0 0 0 0 0 0 0 0 0 0 0 0 0 0 0 0 0 0 0 0 
0 2.2088e-17 5.02491e-17 9.20122e-17 1.58112e-16 2.64878e-16 4.37692e-16 7.16147e-16 1.16172e-15 1.8692e-15 2.9835e-15 4.72429e-15 7.42158e-15 1.15667e-14 1.78845e-14 2.74348e-14 4.1753e-14 6.30426e-14 9.4438e-14 1.40355e-13 2.06956e-13 3.02765e-13 4.39451e-13 6.32848e-13 9.04224e-13 1.28187e-12 1.80307e-12 2.51643e-12 3.48472e-12 4.78815e-12 6.5282e-12 8.83184e-12 1.18564e-11 1.57943e-11 2.08791e-11 2.73902e-11 3.56582e-11 4.60701e-11 5.90727e-11 7.51755e-11 9.49516e-11 1.19037e-10 1.48126e-10 1.82965e-10 2.24344e-10 2.7308e-10 3.30001e-10 3.9593e-10 4.71653e-10 5.57899e-10 6.55311e-10 7.64415e-10 8.85594e-10 1.01906e-09 1.16483e-09 1.3227e-09 1.49226e-09 1.67284e-09 1.86356e-09 2.0633e-09 2.27073e-09 2.48435e-09 2.7025e-09 2.92342e-09 3.14527e-09 3.36619e-09 3.58434e-09 3.79796e-09 4.00539e-09 4.20513e-09 4.39584e-09 4.57643e-09 4.74599e-09 4.90386e-09 5.04963e-09 5.1831e-09 5.30427e-09 5.41338e-09 5.51079e-09 5.59704e-09 5.67276e-09 5.73869e-09 5.79561e-09 5.84435e-09 5.88572e-09 5.92056e-09 5.94965e-09 5.97374e-09 5.99351e-09 6.00962e-09 6.02262e-09 6.03303e-09 6.0413e-09 6.04781e-09 6.05289e-09 6.05683e-09 6.05986e-09 6.06216e-09 6.0639e-09 6.0652e-09 6.06617e-09 6.06689e-09 6.06741e-09 6.06778e-09 6.06806e-09 6.06825e-09 6.06839e-09 6.06848e-09 6.06855e-09 6.06859e-09 6.06863e-09 6.06865e-09 6.06866e-09 6.06867e-09 6.06868e-09 6.06868e-09 6.06869e-09 6.06869e-09 6.06869e-09 6.06869e-09 6.06869e-09 6.06869e-09 6.06869e-09 6.06869e-09 6.06869e-09 6.06869e-09 6.06869e-09 6.06869e-09 6.06869e-09 6.06869e-09 6.06869e-09 6.06869e-09 6.06869e-09 6.06869e-09 6.06869e-09 6.06869e-09 6.06869e-09 6.06869e-09 6.06869e-09 6.06869e-09 6.06868e-09 6.06868e-09 6.06867e-09 6.06866e-09 6.06865e-09 6.06863e-09 6.06859e-09 6.06855e-09 6.06848e-09 6.06839e-09 6.06825e-09 6.06806e-09 6.06778e-09 6.06741e-09 6.06689e-09 6.06617e-09 6.0652e-09 6.0639e-09 6.06216e-09 6.05986e-09 6.05683e-09 6.05289e-09 6.04781e-09 6.0413e-09 6.03303e-09 6.02262e-09 6.00962e-09 5.99351e-09 5.97374e-09 5.94965e-09 5.92056e-09 5.88572e-09 5.84435e-09 5.79561e-09 5.73869e-09 5.67276e-09 5.59704e-09 5.51079e-09 5.41338e-09 5.30427e-09 5.1831e-09 5.04963e-09 4.90386e-09 4.74599e-09 4.57643e-09 4.39584e-09 4.20513e-09 4.00539e-09 3.79796e-09 3.58434e-09 3.36619e-09 3.14527e-09 2.92342e-09 2.7025e-09 2.48435e-09 2.27073e-09 2.0633e-09 1.86356e-09 1.67284e-09 1.49226e-09 1.3227e-09 1.16483e-09 1.01906e-09 8.85594e-10 7.64415e-10 6.55311e-10 5.57899e-10 4.71653e-10 3.9593e-10 3.30001e-10 2.7308e-10 2.24344e-10 1.82965e-10 1.48126e-10 1.19037e-10 9.49516e-11 7.51755e-11 5.90727e-11 4.60701e-11 3.56582e-11 2.73902e-11 2.08791e-11 1.57943e-11 1.18564e-11 8.83184e-12 6.5282e-12 4.78815e-12 3.48472e-12 2.51643e-12 1.80307e-12 1.28187e-12 9.04224e-13 6.32848e-13 4.39451e-13 3.02765e-13 2.06956e-13 1.40355e-13 9.4438e-14 6.30426e-14 4.1753e-14 2.74348e-14 1.78845e-14 1.15667e-14 7.42158e-15 4.72429e-15 2.9835e-15 1.8692e-15 1.16172e-15 7.16147e-16 4.37692e-16 2.64878e-16 1.58112e-16 9.20122e-17 5.02491e-17 2.2088e-17 0 
0 5.02491e-17 1.143e-16 2.0926e-16 3.59515e-16 6.02142e-16 9.94772e-16 1.62726e-15 2.63912e-15 4.24536e-15 6.77471e-15 1.07253e-14 1.68453e-14 2.62483e-14 4.0577e-14 6.22329e-14 9.46936e-14 1.4295e-13 2.141e-13 3.1814e-13 4.69022e-13 6.86033e-13 9.95582e-13 1.43349e-12 2.04786e-12 2.9027e-12 4.08228e-12 5.69652e-12 7.88732e-12 1.0836e-11 1.47718e-11 1.99818e-11 2.68212e-11 3.57252e-11 4.72207e-11 6.1939e-11 8.06269e-11 1.04158e-10 1.33541e-10 1.69925e-10 2.14606e-10 2.69017e-10 3.34727e-10 4.13419e-10 5.06874e-10 6.16937e-10 7.45477e-10 8.94347e-10 1.06532e-09 1.26004e-09 1.47996e-09 1.72627e-09 1.99981e-09 2.30108e-09 2.63011e-09 2.98645e-09 3.36915e-09 3.77672e-09 4.20716e-09 4.65793e-09 5.12606e-09 5.60816e-09 6.10048e-09 6.59904e-09 7.0997e-09 7.59826e-09 8.09058e-09 8.57268e-09 9.04081e-09 9.49159e-09 9.92202e-09 1.03296e-08 1.07123e-08 1.10686e-08 1.13977e-08 1.16989e-08 1.19725e-08 1.22188e-08 1.24387e-08 1.26334e-08 1.28044e-08 1.29533e-08 1.30818e-08 1.31919e-08 1.32853e-08 1.3364e-08 1.34297e-08 1.34841e-08 1.35288e-08 1.35652e-08 1.35946e-08 1.36181e-08 1.36368e-08 1.36515e-08 1.3663e-08 1.36719e-08 1.36788e-08 1.3684e-08 1.36879e-08 1.36909e-08 1.3693e-08 1.36947e-08 1.36958e-08 1.36967e-08 1.36973e-08 1.36977e-08 1.36981e-08 1.36983e-08 1.36984e-08 1.36985e-08 1.36986e-08 1.36986e-08 1.36987e-08 1.36987e-08 1.36987e-08 1.36987e-08 1.36987e-08 1.36987e-08 1.36987e-08 1.36987e-08 1.36987e-08 1.36987e-08 1.36987e-08 1.36987e-08 1.36987e-08 1.36987e-08 1.36987e-08 1.36987e-08 1.36987e-08 1.36987e-08 1.36987e-08 1.36987e-08 1.36987e-08 1.36987e-08 1.36987e-08 1.36987e-08 1.36987e-08 1.36987e-08 1.36987e-08 1.36987e-08 1.36987e-08 1.36987e-08 1.36987e-08 1.36987e-08 1.36986e-08 1.36986e-08 1.36985e-08 1.36984e-08 1.36983e-08 1.36981e-08 1.36977e-08 1.36973e-08 1.36967e-08 1.36958e-08 1.36947e-08 1.3693e-08 1.36909e-08 1.36879e-08 1.3684e-08 1.36788e-08 1.36719e-08 1.3663e-08 1.36515e-08 1.36368e-08 1.36181e-08 1.35946e-08 1.35652e-08 1.35288e-08 1.34841e-08 1.34297e-08 1.3364e-08 1.32853e-08 1.31919e-08 1.30818e-08 1.29533e-08 1.28044e-08 1.26334e-08 1.24387e-08 1.22188e-08 1.19725e-08 1.16989e-08 1.13977e-08 1.10686e-08 1.07123e-08 1.03296e-08 9.92202e-09 9.49159e-09 9.04081e-09 8.57268e-09 8.09058e-09 7.59826e-09 7.0997e-09 6.59904e-09 6.10048e-09 5.60816e-09 5.12606e-09 4.65793e-09 4.20716e-09 3.77672e-09 3.36915e-09 2.98645e-09 2.63011e-09 2.30108e-09 1.99981e-09 1.72627e-09 1.47996e-09 1.26004e-09 1.06532e-09 8.94347e-10 7.45477e-10 6.16937e-10 5.06874e-10 4.13419e-10 3.34727e-10 2.69017e-10 2.14606e-10 1.69925e-10 1.33541e-10 1.04158e-10 8.06269e-11 6.1939e-11 4.72207e-11 3.57252e-11 2.68212e-11 1.99818e-11 1.47718e-11 1.0836e-11 7.88732e-12 5.69652e-12 4.08228e-12 2.9027e-12 2.04786e-12 1.43349e-12 9.95582e-13 6.86033e-13 4.69022e-13 3.1814e-13 2.141e-13 1.4295e-13 9.46936e-14 6.22329e-14 4.0577e-14 2.62483e-14 1.68453e-14 1.07253e-14 6.77471e-15 4.24536e-15 2.63912e-15 1.62726e-15 9.94772e-16 6.02142e-16 3.59515e-16 2.0926e-16 1.143e-16 5.02491e-17 0 
0 9.20122e-17 2.0926e-16 3.83015e-16 6.57829e-16 1.10142e-15 1.819e-15 2.97456e-15 4.8226e-15 7.75526e-15 1.23718e-14 1.95802e-14 3.07434e-14 4.78899e-14 7.4011e-14 1.13478e-13 1.72619e-13 2.60515e-13 3.90074e-13 5.79474e-13 8.54076e-13 1.24893e-12 1.81202e-12 2.6084e-12 3.72545e-12 5.27935e-12 7.42309e-12 1.03561e-11 1.43359e-11 1.96913e-11 2.68382e-11 3.62969e-11 4.87114e-11 6.48705e-11 8.57292e-11 1.12431e-10 1.46329e-10 1.89004e-10 2.42285e-10 3.08252e-10 3.89249e-10 4.87872e-10 6.06958e-10 7.49555e-10 9.18883e-10 1.11828e-09 1.35113e-09 1.62077e-09 1.93043e-09 2.28306e-09 2.68129e-09 3.12726e-09 3.62253e-09 4.16795e-09 4.76359e-09 5.40864e-09 6.10137e-09 6.83909e-09 7.61815e-09 8.43402e-09 9.28127e-09 1.01538e-08 1.10448e-08 1.19471e-08 1.28531e-08 1.37554e-08 1.46464e-08 1.55189e-08 1.63662e-08 1.71821e-08 1.79611e-08 1.86988e-08 1.93916e-08 2.00366e-08 2.06323e-08 2.11777e-08 2.16729e-08 2.21189e-08 2.25171e-08 2.28698e-08 2.31794e-08 2.34491e-08 2.36819e-08 2.38813e-08 2.40507e-08 2.41932e-08 2.43123e-08 2.4411e-08 2.4492e-08 2.45579e-08 2.46112e-08 2.46539e-08 2.46878e-08 2.47145e-08 2.47353e-08 2.47515e-08 2.47639e-08 2.47734e-08 2.47805e-08 2.47859e-08 2.47899e-08 2.47928e-08 2.47949e-08 2.47965e-08 2.47976e-08 2.47984e-08 2.4799e-08 2.47994e-08 2.47996e-08 2.47998e-08 2.47999e-08 2.48e-08 2.48001e-08 2.48001e-08 2.48002e-08 2.48002e-08 2.48002e-08 2.48002e-08 2.48002e-08 2.48002e-08 2.48002e-08 2.48002e-08 2.48002e-08 2.48002e-08 2.48002e-08 2.48002e-08 2.48002e-08 2.48002e-08 2.48002e-08 2.48002e-08 2.48002e-08 2.48002e-08 2.48002e-08 2.48002e-08 2.48002e-08 2.48002e-08 2.48002e-08 2.48002e-08 2.48002e-08 2.48002e-08 2.48002e-08 2.48002e-08 2.48001e-08 2.48001e-08 2.48e-08 2.47999e-08 2.47998e-08 2.47996e-08 2.47994e-08 2.4799e-08 2.47984e-08 2.47976e-08 2.47965e-08 2.47949e-08 2.47928e-08 2.47899e-08 2.47859e-08 2.47805e-08 2.47734e-08 2.47639e-08 2.47515e-08 2.47353e-08 2.47145e-08 2.46878e-08 2.46539e-08 2.46112e-08 2.45579e-08 2.4492e-08 2.4411e-08 2.43123e-08 2.41932e-08 2.40507e-08 2.38813e-08 2.36819e-08 2.34491e-08 2.31794e-08 2.28698e-08 2.25171e-08 2.21189e-08 2.16729e-08 2.11777e-08 2.06323e-08 2.00366e-08 1.93916e-08 1.86988e-08 1.79611e-08 1.71821e-08 1.63662e-08 1.55189e-08 1.46464e-08 1.37554e-08 1.28531e-08 1.19471e-08 1.10448e-08 1.01538e-08 9.28127e-09 8.43402e-09 7.61815e-09 6.83909e-09 6.10137e-09 5.40864e-09 4.76359e-09 4.16795e-09 3.62253e-09 3.12726e-09 2.68129e-09 2.28306e-09 1.93043e-09 1.62077e-09 1.35113e-09 1.11828e-09 9.18883e-10 7.49555e-10 6.06958e-10 4.87872e-10 3.89249e-10 3.08252e-10 2.42285e-10 1.89004e-10 1.46329e-10 1.12431e-10 8.57292e-11 6.48705e-11 4.87114e-11 3.62969e-11 2.68382e-11 1.96913e-11 1.43359e-11 1.03561e-11 7.42309e-12 5.27935e-12 3.72545e-12 2.6084e-12 1.81202e-12 1.24893e-12 8.54076e-13 5.79474e-13 3.90074e-13 2.60515e-13 1.72619e-13 1.13478e-13 7.4011e-14 4.78899e-14 3.07434e-14 1.95802e-14 1.23718e-14 7.75526e-15 4.8226e-15 2.97456e-15 1.819e-15 1.10142e-15 6.57829e-16 3.83015e-16 2.0926e-16 9.20122e-17 0 
0 1.58112e-16 3.59515e-16 6.57829e-16 1.12942e-15 1.89029e-15 3.12059e-15 5.101e-15 8.26694e-15 1.32891e-14 2.11918e-14 3.35266e-14 5.26221e-14 8.19419e-14 1.26592e-13 1.94031e-13 2.95056e-13 4.45151e-13 6.6632e-13 9.89539e-13 1.45802e-12 2.13144e-12 3.09151e-12 4.44897e-12 6.35247e-12 8.99966e-12 1.26507e-11 1.76448e-11 2.44194e-11 3.35334e-11 4.56934e-11 6.1783e-11 8.28959e-11 1.10371e-10 1.4583e-10 1.91211e-10 2.48812e-10 3.21315e-10 4.11819e-10 5.23854e-10 6.61389e-10 8.28828e-10 1.03098e-09 1.273e-09 1.56035e-09 1.89869e-09 2.29373e-09 2.75115e-09 3.27637e-09 3.87444e-09 4.54977e-09 5.30598e-09 6.14572e-09 7.07041e-09 8.08018e-09 9.17364e-09 1.03479e-08 1.15983e-08 1.29187e-08 1.43014e-08 1.57374e-08 1.7216e-08 1.8726e-08 2.02551e-08 2.17906e-08 2.33197e-08 2.48297e-08 2.63084e-08 2.77443e-08 2.9127e-08 3.04474e-08 3.16979e-08 3.28721e-08 3.39655e-08 3.49753e-08 3.59e-08 3.67397e-08 3.7496e-08 3.81713e-08 3.87693e-08 3.92946e-08 3.9752e-08 4.0147e-08 4.04854e-08 4.07727e-08 4.10147e-08 4.12169e-08 4.13843e-08 4.15219e-08 4.16339e-08 4.17244e-08 4.17969e-08 4.18545e-08 4.18999e-08 4.19353e-08 4.19628e-08 4.19839e-08 4.2e-08 4.20122e-08 4.20213e-08 4.20281e-08 4.20331e-08 4.20367e-08 4.20394e-08 4.20413e-08 4.20426e-08 4.20436e-08 4.20443e-08 4.20447e-08 4.2045e-08 4.20453e-08 4.20454e-08 4.20455e-08 4.20456e-08 4.20456e-08 4.20457e-08 4.20457e-08 4.20457e-08 4.20457e-08 4.20457e-08 4.20457e-08 4.20457e-08 4.20457e-08 4.20457e-08 4.20457e-08 4.20457e-08 4.20457e-08 4.20457e-08 4.20457e-08 4.20457e-08 4.20457e-08 4.20457e-08 4.20457e-08 4.20457e-08 4.20457e-08 4.20457e-08 4.20457e-08 4.20457e-08 4.20457e-08 4.20457e-08 4.20457e-08 4.20456e-08 4.20456e-08 4.20455e-08 4.20454e-08 4.20453e-08 4.2045e-08 4.20447e-08 4.20443e-08 4.20436e-08 4.20426e-08 4.20413e-08 4.20394e-08 4.20367e-08 4.20331e-08 4.20281e-08 4.20213e-08 4.20122e-08 4.2e-08 4.19839e-08 4.19628e-08 4.19353e-08 4.18999e-08 4.18545e-08 4.17969e-08 4.17244e-08 4.16339e-08 4.15219e-08 4.13843e-08 4.12169e-08 4.10147e-08 4.07727e-08 4.04854e-08 4.0147e-08 3.9752e-08 3.92946e-08 3.87693e-08 3.81713e-08 3.7496e-08 3.67397e-08 3.59e-08 3.49753e-08 3.39655e-08 3.28721e-08 3.16979e-08 3.04474e-08 2.9127e-08 2.77443e-08 2.63084e-08 2.48297e-08 2.33197e-08 2.17906e-08 2.02551e-08 1.8726e-08 1.7216e-08 1.57374e-08 1.43014e-08 1.29187e-08 1.15983e-08 1.03479e-08 9.17364e-09 8.08018e-09 7.07041e-09 6.14572e-09 5.30598e-09 4.54977e-09 3.87444e-09 3.27637e-09 2.75115e-09 2.29373e-09 1.89869e-09 1.56035e-09 1.273e-09 1.03098e-09 8.28828e-10 6.61389e-10 5.23854e-10 4.11819e-10 3.21315e-10 2.48812e-10 1.91211e-10 1.4583e-10 1.10371e-10 8.28959e-11 6.1783e-11 4.56934e-11 3.35334e-11 2.44194e-11 1.76448e-11 1.26507e-11 8.99966e-12 6.35247e-12 4.44897e-12 3.09151e-12 2.13144e-12 1.45802e-12 9.89539e-13 6.6632e-13 4.45151e-13 2.95056e-13 1.94031e-13 1.26592e-13 8.19419e-14 5.26221e-14 3.35266e-14 2.11918e-14 1.32891e-14 8.26694e-15 5.101e-15 3.12059e-15 1.89029e-15 1.12942e-15 6.57829e-16 3.59515e-16 1.58112e-16 0 
0 2.64878e-16 6.02142e-16 1.10142e-15 1.89029e-15 3.16244e-15 5.21852e-15 8.52674e-15 1.38131e-14 2.21953e-14 3.53802e-14 5.59513e-14 8.77848e-14 1.36644e-13 2.11023e-13 3.23323e-13 4.91488e-13 7.41247e-13 1.10915e-12 1.64662e-12 2.42538e-12 3.54446e-12 5.13939e-12 7.39378e-12 1.05541e-11 1.49478e-11 2.10059e-11 2.92902e-11 4.0525e-11 5.56355e-11 7.57909e-11 1.02453e-10 1.37431e-10 1.82939e-10 2.41656e-10 3.16789e-10 4.12132e-10 5.32117e-10 6.81861e-10 8.67195e-10 1.09467e-09 1.37156e-09 1.70579e-09 2.10589e-09 2.58085e-09 3.13999e-09 3.79277e-09 4.54851e-09 5.41618e-09 6.40407e-09 7.51947e-09 8.76833e-09 1.0155e-08 1.16818e-08 1.3349e-08 1.51542e-08 1.70926e-08 1.91567e-08 2.13363e-08 2.36187e-08 2.59887e-08 2.84292e-08 3.09214e-08 3.3445e-08 3.59793e-08 3.8503e-08 4.09952e-08 4.34357e-08 4.58057e-08 4.8088e-08 5.02676e-08 5.23317e-08 5.42701e-08 5.60753e-08 5.77425e-08 5.92693e-08 6.0656e-08 6.19049e-08 6.30203e-08 6.40082e-08 6.48758e-08 6.56316e-08 6.62844e-08 6.68435e-08 6.73185e-08 6.77185e-08 6.80528e-08 6.83297e-08 6.85571e-08 6.87425e-08 6.88922e-08 6.90122e-08 6.91075e-08 6.91827e-08 6.92414e-08 6.92869e-08 6.93219e-08 6.93486e-08 6.93687e-08 6.93838e-08 6.9395e-08 6.94033e-08 6.94094e-08 6.94138e-08 6.94169e-08 6.94192e-08 6.94208e-08 6.94219e-08 6.94227e-08 6.94232e-08 6.94236e-08 6.94238e-08 6.9424e-08 6.94241e-08 6.94242e-08 6.94243e-08 6.94243e-08 6.94243e-08 6.94243e-08 6.94243e-08 6.94243e-08 6.94243e-08 6.94243e-08 6.94243e-08 6.94243e-08 6.94243e-08 6.94243e-08 6.94243e-08 6.94243e-08 6.94243e-08 6.94243e-08 6.94243e-08 6.94243e-08 6.94243e-08 6.94243e-08 6.94243e-08 6.94243e-08 6.94243e-08 6.94243e-08 6.94243e-08 6.94243e-08 6.94242e-08 6.94241e-08 6.9424e-08 6.94238e-08 6.94236e-08 6.94232e-08 6.94227e-08 6.94219e-08 6.94208e-08 6.94192e-08 6.94169e-08 6.94138e-08 6.94094e-08 6.94033e-08 6.9395e-08 6.93838e-08 6.93687e-08 6.93486e-08 6.93219e-08 6.92869e-08 6.92414e-08 6.91827e-08 6.91075e-08 6.90122e-08 6.88922e-08 6.87425e-08 6.85571e-08 6.83297e-08 6.80528e-08 6.77185e-08 6.73185e-08 6.68435e-08 6.62844e-08 6.56316e-08 6.48758e-08 6.40082e-08 6.30203e-08 6.19049e-08 6.0656e-08 5.92693e-08 5.77425e-08 5.60753e-08 5.42701e-08 5.23317e-08 5.02676e-08 4.8088e-08 4.58057e-08 4.34357e-08 4.09952e-08 3.8503e-08 3.59793e-08 3.3445e-08 3.09214e-08 2.84292e-08 2.59887e-08 2.36187e-08 2.13363e-08 1.91567e-08 1.70926e-08 1.51542e-08 1.3349e-08 1.16818e-08 1.0155e-08 8.76833e-09 7.51947e-09 6.40407e-09 5.41618e-09 4.54851e-09 3.79277e-09 3.13999e-09 2.58085e-09 2.10589e-09 1.70579e-09 1.37156e-09 1.09467e-09 8.67195e-10 6.81861e-10 5.32117e-10 4.12132e-10 3.16789e-10 2.41656e-10 1.82939e-10 1.37431e-10 1.02453e-10 7.57909e-11 5.56355e-11 4.0525e-11 2.92902e-11 2.10059e-11 1.49478e-11 1.05541e-11 7.39378e-12 5.13939e-12 3.54446e-12 2.42538e-12 1.64662e-12 1.10915e-12 7.41247e-13 4.91488e-13 3.23323e-13 2.11023e-13 1.36644e-13 8.77848e-14 5.59513e-14 3.53802e-14 2.21953e-14 1.38131e-14 8.52674e-15 5.21852e-15 3.16244e-15 1.89029e-15 1.10142e-15 6.02142e-16 2.64878e-16 0 
0 4.37693e-16 9.94772e-16 1.819e-15 3.12059e-15 5.21852e-15 8.60768e-15 1.40583e-14 2.27644e-14 3.65633e-14 5.82592e-14 9.20954e-14 1.44436e-13 2.24738e-13 3.46936e-13 5.31364e-13 8.07439e-13 1.21732e-12 1.82086e-12 2.70228e-12 3.97896e-12 5.81298e-12 8.42597e-12 1.21182e-11 1.72925e-11 2.44841e-11 3.43972e-11 4.7949e-11 6.63225e-11 9.10276e-11 1.23972e-10 1.67541e-10 2.24685e-10 2.99014e-10 3.94895e-10 5.17556e-10 6.73177e-10 8.68978e-10 1.11329e-09 1.41562e-09 1.78662e-09 2.23813e-09 2.78304e-09 3.43524e-09 4.20935e-09 5.12053e-09 6.18415e-09 7.41537e-09 8.82877e-09 1.04378e-08 1.22543e-08 1.4288e-08 1.65458e-08 1.90317e-08 2.17458e-08 2.46845e-08 2.78398e-08 3.11995e-08 3.4747e-08 3.84615e-08 4.23186e-08 4.62904e-08 5.03461e-08 5.44531e-08 5.85773e-08 6.26843e-08 6.674e-08 7.07118e-08 7.45689e-08 7.82835e-08 8.1831e-08 8.51906e-08 8.83459e-08 9.12846e-08 9.39987e-08 9.64846e-08 9.87424e-08 1.00776e-07 1.02593e-07 1.04202e-07 1.05615e-07 1.06846e-07 1.0791e-07 1.08821e-07 1.09595e-07 1.10247e-07 1.10792e-07 1.11244e-07 1.11615e-07 1.11917e-07 1.12161e-07 1.12357e-07 1.12513e-07 1.12636e-07 1.12731e-07 1.12806e-07 1.12863e-07 1.12906e-07 1.12939e-07 1.12964e-07 1.12982e-07 1.12996e-07 1.13006e-07 1.13013e-07 1.13018e-07 1.13022e-07 1.13025e-07 1.13026e-07 1.13028e-07 1.13029e-07 1.13029e-07 1.1303e-07 1.1303e-07 1.1303e-07 1.1303e-07 1.1303e-07 1.1303e-07 1.1303e-07 1.1303e-07 1.1303e-07 1.1303e-07 1.1303e-07 1.1303e-07 1.1303e-07 1.1303e-07 1.1303e-07 1.1303e-07 1.1303e-07 1.1303e-07 1.1303e-07 1.1303e-07 1.1303e-07 1.1303e-07 1.1303e-07 1.1303e-07 1.1303e-07 1.1303e-07 1.1303e-07 1.1303e-07 1.1303e-07 1.1303e-07 1.1303e-07 1.1303e-07 1.1303e-07 1.1303e-07 1.13029e-07 1.13029e-07 1.13028e-07 1.13026e-07 1.13025e-07 1.13022e-07 1.13018e-07 1.13013e-07 1.13006e-07 1.12996e-07 1.12982e-07 1.12964e-07 1.12939e-07 1.12906e-07 1.12863e-07 1.12806e-07 1.12731e-07 1.12636e-07 1.12513e-07 1.12357e-07 1.12161e-07 1.11917e-07 1.11615e-07 1.11244e-07 1.10792e-07 1.10247e-07 1.09595e-07 1.08821e-07 1.0791e-07 1.06846e-07 1.05615e-07 1.04202e-07 1.02593e-07 1.00776e-07 9.87424e-08 9.64846e-08 9.39987e-08 9.12846e-08 8.83459e-08 8.51906e-08 8.1831e-08 7.82835e-08 7.45689e-08 7.07118e-08 6.674e-08 6.26843e-08 5.85773e-08 5.44531e-08 5.03461e-08 4.62904e-08 4.23186e-08 3.84615e-08 3.4747e-08 3.11995e-08 2.78398e-08 2.46845e-08 2.17458e-08 1.90317e-08 1.65458e-08 1.4288e-08 1.22543e-08 1.04378e-08 8.82877e-09 7.41537e-09 6.18415e-09 5.12053e-09 4.20935e-09 3.43524e-09 2.78304e-09 2.23813e-09 1.78662e-09 1.41562e-09 1.11329e-09 8.68978e-10 6.73177e-10 5.17556e-10 3.94895e-10 2.99014e-10 2.24685e-10 1.67541e-10 1.23972e-10 9.10276e-11 6.63225e-11 4.7949e-11 3.43972e-11 2.44841e-11 1.72925e-11 1.21182e-11 8.42597e-12 5.81298e-12 3.97896e-12 2.70228e-12 1.82086e-12 1.21732e-12 8.07439e-13 5.31364e-13 3.46936e-13 2.24738e-13 1.44436e-13 9.20954e-14 5.82592e-14 3.65633e-14 2.27644e-14 1.40583e-14 8.60768e-15 5.21852e-15 3.12059e-15 1.819e-15 9.94772e-16 4.37693e-16 0 
0 7.16147e-16 1.62726e-15 2.97456e-15 5.101e-15 8.52674e-15 1.40583e-14 2.29507e-14 3.71478e-14 5.96401e-14 9.49901e-14 1.50098e-13 2.35309e-13 3.65992e-13 5.64778e-13 8.64685e-13 1.31346e-12 1.97949e-12 2.95987e-12 4.39114e-12 6.46354e-12 9.43964e-12 1.36784e-11 1.96661e-11 2.80547e-11 3.97101e-11 5.57716e-11 7.77224e-11 1.07475e-10 1.47469e-10 2.00789e-10 2.71285e-10 3.63723e-10 4.83932e-10 6.38961e-10 8.37244e-10 1.08875e-09 1.40513e-09 1.79983e-09 2.28814e-09 2.88726e-09 3.61626e-09 4.49593e-09 5.54862e-09 6.79788e-09 8.26813e-09 9.9841e-09 1.19702e-08 1.42499e-08 1.68449e-08 1.97741e-08 2.30532e-08 2.66933e-08 3.07008e-08 3.50759e-08 3.98126e-08 4.48981e-08 5.03127e-08 5.60297e-08 6.20158e-08 6.82313e-08 7.46315e-08 8.11668e-08 8.77846e-08 9.44301e-08 1.01048e-07 1.07583e-07 1.13983e-07 1.20199e-07 1.26185e-07 1.31902e-07 1.37317e-07 1.42402e-07 1.47139e-07 1.51514e-07 1.55521e-07 1.59162e-07 1.62441e-07 1.6537e-07 1.67965e-07 1.70245e-07 1.72231e-07 1.73947e-07 1.75417e-07 1.76666e-07 1.77719e-07 1.78599e-07 1.79328e-07 1.79927e-07 1.80415e-07 1.8081e-07 1.81126e-07 1.81378e-07 1.81576e-07 1.81731e-07 1.81851e-07 1.81943e-07 1.82014e-07 1.82067e-07 1.82107e-07 1.82137e-07 1.82159e-07 1.82175e-07 1.82187e-07 1.82195e-07 1.82201e-07 1.82205e-07 1.82208e-07 1.8221e-07 1.82212e-07 1.82213e-07 1.82213e-07 1.82214e-07 1.82214e-07 1.82214e-07 1.82215e-07 1.82215e-07 1.82215e-07 1.82215e-07 1.82215e-07 1.82215e-07 1.82215e-07 1.82215e-07 1.82215e-07 1.82215e-07 1.82215e-07 1.82215e-07 1.82215e-07 1.82215e-07 1.82215e-07 1.82215e-07 1.82215e-07 1.82215e-07 1.82215e-07 1.82215e-07 1.82215e-07 1.82215e-07 1.82215e-07 1.82215e-07 1.82215e-07 1.82215e-07 1.82214e-07 1.82214e-07 1.82214e-07 1.82213e-07 1.82213e-07 1.82212e-07 1.8221e-07 1.82208e-07 1.82205e-07 1.82201e-07 1.82195e-07 1.82187e-07 1.82175e-07 1.82159e-07 1.82137e-07 1.82107e-07 1.82067e-07 1.82014e-07 1.81943e-07 1.81851e-07 1.81731e-07 1.81576e-07 1.81378e-07 1.81126e-07 1.8081e-07 1.80415e-07 1.79927e-07 1.79328e-07 1.78599e-07 1.77719e-07 1.76666e-07 1.75417e-07 1.73947e-07 1.72231e-07 1.70245e-07 1.67965e-07 1.6537e-07 1.62441e-07 1.59162e-07 1.55521e-07 1.51514e-07 1.47139e-07 1.42402e-07 1.37317e-07 1.31902e-07 1.26185e-07 1.20199e-07 1.13983e-07 1.07583e-07 1.01048e-07 9.44301e-08 8.77846e-08 8.11668e-08 7.46315e-08 6.82313e-08 6.20158e-08 5.60297e-08 5.03127e-08 4.48981e-08 3.98126e-08 3.50759e-08 3.07008e-08 2.66933e-08 2.30532e-08 1.97741e-08 1.68449e-08 1.42499e-08 1.19702e-08 9.9841e-09 8.26813e-09 6.79788e-09 5.54862e-09 4.49593e-09 3.61626e-09 2.88726e-09 2.28814e-09 1.79983e-09 1.40513e-09 1.08875e-09 8.37244e-10 6.38961e-10 4.83932e-10 3.63723e-10 2.71285e-10 2.00789e-10 1.47469e-10 1.07475e-10 7.77224e-11 5.57716e-11 3.97101e-11 2.80547e-11 1.96661e-11 1.36784e-11 9.43964e-12 6.46354e-12 4.39114e-12 2.95987e-12 1.97949e-12 1.31346e-12 8.64685e-13 5.64778e-13 3.65992e-13 2.35309e-13 1.50098e-13 9.49901e-14 5.96401e-14 3.71478e-14 2.29507e-14 1.40583e-14 8.52674e-15 5.101e-15 2.97456e-15 1.62726e-15 7.16147e-16 0 
0 1.16172e-15 2.63912e-15 4.8226e-15 8.26694e-15 1.38131e-14 2.27644e-14 3.71478e-14 6.01017e-14 9.64521e-14 1.53559e-13 2.42548e-13 3.80092e-13 5.90954e-13 9.11581e-13 1.39513e-12 2.11843e-12 3.19151e-12 4.7705e-12 7.0749e-12 1.04104e-11 1.51989e-11 2.20168e-11 3.16447e-11 4.51289e-11 6.38591e-11 8.96621e-11 1.24916e-10 1.72688e-10 2.36887e-10 3.22452e-10 4.35554e-10 5.83823e-10 7.76588e-10 1.02513e-09 1.34296e-09 1.74601e-09 2.25291e-09 2.88516e-09 3.66722e-09 4.62658e-09 5.7937e-09 7.2018e-09 8.88657e-09 1.08857e-08 1.3238e-08 1.59831e-08 1.916e-08 2.2806e-08 2.69557e-08 3.16395e-08 3.68821e-08 4.27016e-08 4.91076e-08 5.61007e-08 6.36713e-08 7.1799e-08 8.0452e-08 8.95879e-08 9.91532e-08 1.09085e-07 1.19311e-07 1.29754e-07 1.40328e-07 1.50946e-07 1.6152e-07 1.71962e-07 1.82189e-07 1.9212e-07 2.01686e-07 2.10822e-07 2.19475e-07 2.27602e-07 2.35173e-07 2.42166e-07 2.48572e-07 2.54392e-07 2.59634e-07 2.64318e-07 2.68468e-07 2.72114e-07 2.75291e-07 2.78036e-07 2.80388e-07 2.82387e-07 2.84072e-07 2.8548e-07 2.86647e-07 2.87607e-07 2.88389e-07 2.89021e-07 2.89528e-07 2.89931e-07 2.90249e-07 2.90497e-07 2.9069e-07 2.90838e-07 2.90951e-07 2.91037e-07 2.91101e-07 2.91149e-07 2.91184e-07 2.9121e-07 2.91229e-07 2.91242e-07 2.91252e-07 2.91259e-07 2.91263e-07 2.91267e-07 2.91269e-07 2.91271e-07 2.91272e-07 2.91272e-07 2.91273e-07 2.91273e-07 2.91273e-07 2.91273e-07 2.91274e-07 2.91274e-07 2.91274e-07 2.91274e-07 2.91274e-07 2.91274e-07 2.91274e-07 2.91274e-07 2.91274e-07 2.91274e-07 2.91274e-07 2.91274e-07 2.91274e-07 2.91274e-07 2.91274e-07 2.91274e-07 2.91274e-07 2.91274e-07 2.91274e-07 2.91274e-07 2.91274e-07 2.91274e-07 2.91273e-07 2.91273e-07 2.91273e-07 2.91273e-07 2.91272e-07 2.91272e-07 2.91271e-07 2.91269e-07 2.91267e-07 2.91263e-07 2.91259e-07 2.91252e-07 2.91242e-07 2.91229e-07 2.9121e-07 2.91184e-07 2.91149e-07 2.91101e-07 2.91037e-07 2.90951e-07 2.90838e-07 2.9069e-07 2.90497e-07 2.90249e-07 2.89931e-07 2.89528e-07 2.89021e-07 2.88389e-07 2.87607e-07 2.86647e-07 2.8548e-07 2.84072e-07 2.82387e-07 2.80388e-07 2.78036e-07 2.75291e-07 2.72114e-07 2.68468e-07 2.64318e-07 2.59634e-07 2.54392e-07 2.48572e-07 2.42166e-07 2.35173e-07 2.27602e-07 2.19475e-07 2.10822e-07 2.01686e-07 1.9212e-07 1.82189e-07 1.71962e-07 1.6152e-07 1.50946e-07 1.40328e-07 1.29754e-07 1.19311e-07 1.09085e-07 9.91532e-08 8.95879e-08 8.0452e-08 7.1799e-08 6.36713e-08 5.61007e-08 4.91076e-08 4.27016e-08 3.68821e-08 3.16395e-08 2.69557e-08 2.2806e-08 1.916e-08 1.59831e-08 1.3238e-08 1.08857e-08 8.88657e-09 7.2018e-09 5.7937e-09 4.62658e-09 3.66722e-09 2.88516e-09 2.25291e-09 1.74601e-09 1.34296e-09 1.02513e-09 7.76588e-10 5.83823e-10 4.35554e-10 3.22452e-10 2.36887e-10 1.72688e-10 1.24916e-10 8.96621e-11 6.38591e-11 4.51289e-11 3.16447e-11 2.20168e-11 1.51989e-11 1.04104e-11 7.0749e-12 4.7705e-12 3.19151e-12 2.11843e-12 1.39513e-12 9.11581e-13 5.90954e-13 3.80092e-13 2.42548e-13 1.53559e-13 9.64521e-14 6.01017e-14 3.71478e-14 2.27644e-14 1.38131e-14 8.26694e-15 4.8226e-15 2.63912e-15 1.16172e-15 0 
0 1.8692e-15 4.24536e-15 7.75526e-15 1.32891e-14 2.21953e-14 3.65633e-14 5.96401e-14 9.64521e-14 1.54724e-13 2.46233e-13 3.88774e-13 6.09004e-13 9.46499e-13 1.45948e-12 2.23285e-12 3.38924e-12 5.10426e-12 7.62695e-12 1.13074e-11 1.66328e-11 2.42756e-11 3.51541e-11 5.05114e-11 7.20134e-11 1.01872e-10 1.42994e-10 1.99162e-10 2.75252e-10 3.77482e-10 5.13699e-10 6.93711e-10 9.29635e-10 1.23629e-09 1.63159e-09 2.13697e-09 2.77773e-09 3.58343e-09 4.58816e-09 5.83072e-09 7.35472e-09 9.20842e-09 1.14445e-08 1.41195e-08 1.72931e-08 2.10269e-08 2.53836e-08 3.04249e-08 3.62099e-08 4.27933e-08 5.02232e-08 5.85388e-08 6.77684e-08 7.79275e-08 8.90169e-08 1.01021e-07 1.13908e-07 1.27627e-07 1.4211e-07 1.57274e-07 1.73019e-07 1.8923e-07 2.05783e-07 2.22544e-07 2.39376e-07 2.56137e-07 2.7269e-07 2.88901e-07 3.04645e-07 3.19809e-07 3.34293e-07 3.48012e-07 3.60899e-07 3.72903e-07 3.83992e-07 3.94151e-07 4.03381e-07 4.11696e-07 4.19126e-07 4.2571e-07 4.31495e-07 4.36536e-07 4.40893e-07 4.44626e-07 4.478e-07 4.50475e-07 4.52711e-07 4.54565e-07 4.56089e-07 4.57331e-07 4.58336e-07 4.59142e-07 4.59783e-07 4.60288e-07 4.60683e-07 4.6099e-07 4.61226e-07 4.61406e-07 4.61542e-07 4.61644e-07 4.6172e-07 4.61777e-07 4.61818e-07 4.61848e-07 4.61869e-07 4.61884e-07 4.61895e-07 4.61903e-07 4.61908e-07 4.61912e-07 4.61914e-07 4.61916e-07 4.61917e-07 4.61918e-07 4.61919e-07 4.61919e-07 4.61919e-07 4.61919e-07 4.61919e-07 4.6192e-07 4.6192e-07 4.6192e-07 4.6192e-07 4.6192e-07 4.6192e-07 4.6192e-07 4.6192e-07 4.6192e-07 4.6192e-07 4.6192e-07 4.6192e-07 4.6192e-07 4.6192e-07 4.6192e-07 4.6192e-07 4.6192e-07 4.6192e-07 4.61919e-07 4.61919e-07 4.61919e-07 4.61919e-07 4.61919e-07 4.61918e-07 4.61917e-07 4.61916e-07 4.61914e-07 4.61912e-07 4.61908e-07 4.61903e-07 4.61895e-07 4.61884e-07 4.61869e-07 4.61848e-07 4.61818e-07 4.61777e-07 4.6172e-07 4.61644e-07 4.61542e-07 4.61406e-07 4.61226e-07 4.6099e-07 4.60683e-07 4.60288e-07 4.59783e-07 4.59142e-07 4.58336e-07 4.57331e-07 4.56089e-07 4.54565e-07 4.52711e-07 4.50475e-07 4.478e-07 4.44626e-07 4.40893e-07 4.36536e-07 4.31495e-07 4.2571e-07 4.19126e-07 4.11696e-07 4.03381e-07 3.94151e-07 3.83992e-07 3.72903e-07 3.60899e-07 3.48012e-07 3.34293e-07 3.19809e-07 3.04645e-07 2.88901e-07 2.7269e-07 2.56137e-07 2.39376e-07 2.22544e-07 2.05783e-07 1.8923e-07 1.73019e-07 1.57274e-07 1.4211e-07 1.27627e-07 1.13908e-07 1.01021e-07 8.90169e-08 7.79275e-08 6.77684e-08 5.85388e-08 5.02232e-08 4.27933e-08 3.62099e-08 3.04249e-08 2.53836e-08 2.10269e-08 1.72931e-08 1.41195e-08 1.14445e-08 9.20842e-09 7.35472e-09 5.83072e-09 4.58816e-09 3.58343e-09 2.77773e-09 2.13697e-09 1.63159e-09 1.23629e-09 9.29635e-10 6.93711e-10 5.13699e-10 3.77482e-10 2.75252e-10 1.99162e-10 1.42994e-10 1.01872e-10 7.20134e-11 5.05114e-11 3.51541e-11 2.42756e-11 1.66328e-11 1.13074e-11 7.62695e-12 5.10426e-12 3.38924e-12 2.23285e-12 1.45948e-12 9.46499e-13 6.09004e-13 3.88774e-13 2.46233e-13 1.54724e-13 9.64521e-14 5.96401e-14 3.65633e-14 2.21953e-14 1.32891e-14 7.75526e-15 4.24536e-15 1.8692e-15 0 