<?xml version="1.0"?>
<VTKFile type="ImageData" version="0.1" byte_order="LittleEndian">
  <ImageData WholeExtent="0 255 0 255 0 0" Origin="0 0 0" Spacing="1 1 1">
  <Piece Extent="0 255 0 255 0 0">
    <PointData>
      <DataArray type="Float32" Name="scalar_data" format="ascii" >0 0 0 0 0 0 0 0 0 0 0 0 0 0 0 0 0 0 0 0 0 0 0 0 0 0 0 0 0 0 0 0 0 0 0 0 0 0 0 0 0 0 0 0 0 0 0 0 0 0 0 0 0 0 0 0 0 0 0 0 0 0 0 0 0 0 0 0 0 0 0 0 0 0 0 0 0 0 0 0 0 0 0 0 0 0 0 0 0 0 0 0 0 0 0 0 0 0 0 0 0 0 0 0 0 0 0 0 0 0 0 0 0 0 0 0 0 0 0 0 0 0 0 0 0 0 0 0 0 0 0 0 0 0 0 0 0 0 0 0 0 0 0 0 0 0 0 0 0 0 0 0 0 0 0 0 0 0 0 0 0 0 0 0 0 0 0 0 0 0 0 0 0 0 0 0 0 0 0 0 0 0 0 0 0 0 0 0 0 0 0 0 0 0 0 0 0 0 0 0 0 0 0 0 0 0 0 0 0 0 0 0 0 0 0 0 0 0 0 0 0 0 0 0 0 0 0 0 0 0 0 0 0 0 0 0 0 0 0 0 0 0 0 0 0 0 0 0 0 0 0 0 0 0 0 0 
0 6.72334e-11 1.39354e-10 2.21515e-10 3.19414e-10 4.39579e-10 5.89698e-10 7.78968e-10 1.01849e-09 1.32175e-09 1.70509e-09 2.18834e-09 2.79544e-09 3.55524e-09 4.50231e-09 5.67788e-09 7.13089e-09 8.91911e-09 1.11104e-08 1.37839e-08 1.70317e-08 2.096e-08 2.56907e-08 3.13628e-08 3.81342e-08 4.61828e-08 5.57076e-08 6.69306e-08 8.00967e-08 9.54751e-08 1.13359e-07 1.34067e-07 1.57939e-07 1.8534e-07 2.16654e-07 2.52282e-07 2.92645e-07 3.38169e-07 3.89293e-07 4.46454e-07 5.10087e-07 5.80614e-07 6.58441e-07 7.4395e-07 8.37489e-07 9.39364e-07 1.04983e-06 1.1691e-06 1.2973e-06 1.43451e-06 1.58071e-06 1.73582e-06 1.89965e-06 2.07194e-06 2.25234e-06 2.4404e-06 2.63559e-06 2.83731e-06 3.04484e-06 3.25744e-06 3.47427e-06 3.69444e-06 3.91704e-06 4.14111e-06 4.36567e-06 4.58974e-06 4.81234e-06 5.03252e-06 5.24934e-06 5.46194e-06 5.66948e-06 5.87119e-06 6.06639e-06 6.25445e-06 6.43485e-06 6.60714e-06 6.77097e-06 6.92607e-06 7.07227e-06 7.20948e-06 7.33768e-06 7.45695e-06 7.56742e-06 7.66929e-06 7.76283e-06 7.84834e-06 7.92617e-06 7.9967e-06 8.06033e-06 8.11749e-06 8.16861e-06 8.21414e-06 8.2545e-06 8.29013e-06 8.32144e-06 8.34884e-06 8.37272e-06 8.39342e-06 8.41131e-06 8.42669e-06 8.43985e-06 8.45108e-06 8.4606e-06 8.46865e-06 8.47542e-06 8.48109e-06 8.48582e-06 8.48975e-06 8.493e-06 8.49567e-06 8.49786e-06 8.49965e-06 8.5011e-06 8.50228e-06 8.50323e-06 8.50398e-06 8.50459e-06 8.50507e-06 8.50545e-06 8.50575e-06 8.50598e-06 8.50616e-06 8.5063e-06 8.50641e-06 8.50648e-06 8.50654e-06 8.50657e-06 8.50659e-06 8.50659e-06 8.50657e-06 8.50654e-06 8.50648e-06 8.50641e-06 8.5063e-06 8.50616e-06 8.50598e-06 8.50575e-06 8.50545e-06 8.50507e-06 8.50459e-06 8.50398e-06 8.50323e-06 8.50228e-06 8.5011e-06 8.49965e-06 8.49786e-06 8.49567e-06 8.493e-06 8.48975e-06 8.48582e-06 8.48109e-06 8.47542e-06 8.46865e-06 8.4606e-06 8.45108e-06 8.43985e-06 8.42669e-06 8.41131e-06 8.39342e-06 8.37272e-06 8.34884e-06 8.32144e-06 8.29013e-06 8.2545e-06 8.21414e-06 8.16861e-06 8.11749e-06 8.06033e-06 7.9967e-06 7.92617e-06 7.84834e-06 7.76283e-06 7.66929e-06 7.56742e-06 7.45695e-06 7.33768e-06 7.20948e-06 7.07227e-06 6.92607e-06 6.77097e-06 6.60714e-06 6.43485e-06 6.25445e-06 6.06639e-06 5.87119e-06 5.66948e-06 5.46194e-06 5.24934e-06 5.03252e-06 4.81234e-06 4.58974e-06 4.36567e-06 4.14111e-06 3.91704e-06 3.69444e-06 3.47427e-06 3.25744e-06 3.04484e-06 2.83731e-06 2.63559e-06 2.4404e-06 2.25234e-06 2.07194e-06 1.89965e-06 1.73582e-06 1.58071e-06 1.43451e-06 1.2973e-06 1.1691e-06 1.04983e-06 9.39364e-07 8.37489e-07 7.4395e-07 6.58441e-07 5.80614e-07 5.10087e-07 4.46454e-07 3.89293e-07 3.38169e-07 2.92645e-07 2.52282e-07 2.16654e-07 1.8534e-07 1.57939e-07 1.34067e-07 1.13359e-07 9.54751e-08 8.00967e-08 6.69306e-08 5.57076e-08 4.61828e-08 3.81342e-08 3.13628e-08 2.56907e-08 2.096e-08 1.70317e-08 1.37839e-08 1.11104e-08 8.91911e-09 7.13089e-09 5.67788e-09 4.50231e-09 3.55524e-09 2.79544e-09 2.18834e-09 1.70509e-09 1.32175e-09 1.01849e-09 7.78968e-10 5.89698e-10 4.39579e-10 3.19414e-10 2.21515e-10 1.39354e-10 6.72334e-11 0 
0 1.39354e-10 2.88836e-10 4.59126e-10 6.62028e-10 9.11075e-10 1.22219e-09 1.61444e-09 2.11083e-09 2.73929e-09 3.53368e-09 4.53509e-09 5.79315e-09 7.36761e-09 9.33009e-09 1.1766e-08 1.47768e-08 1.84821e-08 2.30224e-08 2.8562e-08 3.52913e-08 4.34304e-08 5.32318e-08 6.49838e-08 7.9013e-08 9.56881e-08 1.15422e-07 1.38673e-07 1.65949e-07 1.97809e-07 2.3486e-07 2.77759e-07 3.27214e-07 3.83978e-07 4.48846e-07 5.22654e-07 6.06267e-07 7.00573e-07 8.06477e-07 9.24886e-07 1.0567e-06 1.20279e-06 1.36401e-06 1.54114e-06 1.73489e-06 1.94592e-06 2.17474e-06 2.42179e-06 2.68735e-06 2.97155e-06 3.27439e-06 3.59566e-06 3.93501e-06 4.29188e-06 4.66554e-06 5.05508e-06 5.45938e-06 5.87719e-06 6.30706e-06 6.74741e-06 7.19652e-06 7.65257e-06 8.11364e-06 8.57775e-06 9.04287e-06 9.50698e-06 9.96805e-06 1.04241e-05 1.08732e-05 1.13136e-05 1.17434e-05 1.21612e-05 1.25655e-05 1.29551e-05 1.33287e-05 1.36856e-05 1.4025e-05 1.43462e-05 1.46491e-05 1.49333e-05 1.51988e-05 1.54459e-05 1.56747e-05 1.58857e-05 1.60795e-05 1.62566e-05 1.64178e-05 1.65639e-05 1.66957e-05 1.68141e-05 1.692e-05 1.70144e-05 1.7098e-05 1.71718e-05 1.72366e-05 1.72934e-05 1.73429e-05 1.73858e-05 1.74228e-05 1.74547e-05 1.74819e-05 1.75052e-05 1.75249e-05 1.75416e-05 1.75556e-05 1.75674e-05 1.75772e-05 1.75853e-05 1.75921e-05 1.75976e-05 1.76021e-05 1.76058e-05 1.76089e-05 1.76113e-05 1.76132e-05 1.76148e-05 1.76161e-05 1.76171e-05 1.76179e-05 1.76185e-05 1.7619e-05 1.76193e-05 1.76196e-05 1.76198e-05 1.762e-05 1.76201e-05 1.76202e-05 1.76202e-05 1.76202e-05 1.76202e-05 1.76201e-05 1.762e-05 1.76198e-05 1.76196e-05 1.76193e-05 1.7619e-05 1.76185e-05 1.76179e-05 1.76171e-05 1.76161e-05 1.76148e-05 1.76132e-05 1.76113e-05 1.76089e-05 1.76058e-05 1.76021e-05 1.75976e-05 1.75921e-05 1.75853e-05 1.75772e-05 1.75674e-05 1.75556e-05 1.75416e-05 1.75249e-05 1.75052e-05 1.74819e-05 1.74547e-05 1.74228e-05 1.73858e-05 1.73429e-05 1.72934e-05 1.72366e-05 1.71718e-05 1.7098e-05 1.70144e-05 1.692e-05 1.68141e-05 1.66957e-05 1.65639e-05 1.64178e-05 1.62566e-05 1.60795e-05 1.58857e-05 1.56747e-05 1.54459e-05 1.51988e-05 1.49333e-05 1.46491e-05 1.43462e-05 1.4025e-05 1.36856e-05 1.33287e-05 1.29551e-05 1.25655e-05 1.21612e-05 1.17434e-05 1.13136e-05 1.08732e-05 1.04241e-05 9.96805e-06 9.50698e-06 9.04287e-06 8.57775e-06 8.11364e-06 7.65257e-06 7.19652e-06 6.74741e-06 6.30706e-06 5.87719e-06 5.45938e-06 5.05508e-06 4.66554e-06 4.29188e-06 3.93501e-06 3.59566e-06 3.27439e-06 2.97155e-06 2.68735e-06 2.42179e-06 2.17474e-06 1.94592e-06 1.73489e-06 1.54114e-06 1.36401e-06 1.20279e-06 1.0567e-06 9.24886e-07 8.06477e-07 7.00573e-07 6.06267e-07 5.22654e-07 4.48846e-07 3.83978e-07 3.27214e-07 2.77759e-07 2.3486e-07 1.97809e-07 1.65949e-07 1.38673e-07 1.15422e-07 9.56881e-08 7.9013e-08 6.49838e-08 5.32318e-08 4.34304e-08 3.52913e-08 2.8562e-08 2.30224e-08 1.84821e-08 1.47768e-08 1.1766e-08 9.33009e-09 7.36761e-09 5.79315e-09 4.53509e-09 3.53368e-09 2.73929e-09 2.11083e-09 1.61444e-09 1.22219e-09 9.11075e-10 6.62028e-10 4.59126e-10 2.88836e-10 1.39354e-10 0 
0 2.21515e-10 4.59126e-10 7.29805e-10 1.05231e-09 1.44814e-09 1.94261e-09 2.566e-09 3.35488e-09 4.3536e-09 5.61599e-09 7.2073e-09 9.20639e-09 1.17082e-08 1.48264e-08 1.86968e-08 2.34805e-08 2.93675e-08 3.65811e-08 4.5382e-08 5.60728e-08 6.9003e-08 8.45738e-08 1.03243e-07 1.25529e-07 1.52018e-07 1.83364e-07 2.20297e-07 2.63624e-07 3.1423e-07 3.73079e-07 4.41218e-07 5.19767e-07 6.09924e-07 7.12952e-07 8.30176e-07 9.62969e-07 1.11274e-06 1.28094e-06 1.46899e-06 1.67832e-06 1.91033e-06 2.16636e-06 2.44764e-06 2.75534e-06 3.09045e-06 3.45383e-06 3.84614e-06 4.26784e-06 4.71914e-06 5.20003e-06 5.71019e-06 6.24905e-06 6.81573e-06 7.40908e-06 8.02762e-06 8.66962e-06 9.33305e-06 1.00156e-05 1.07149e-05 1.1428e-05 1.21521e-05 1.28843e-05 1.36212e-05 1.43598e-05 1.50967e-05 1.58288e-05 1.6553e-05 1.72661e-05 1.79653e-05 1.86479e-05 1.93113e-05 1.99533e-05 2.05719e-05 2.11652e-05 2.17319e-05 2.22708e-05 2.27809e-05 2.32618e-05 2.37131e-05 2.41348e-05 2.45271e-05 2.48905e-05 2.52256e-05 2.55333e-05 2.58146e-05 2.60706e-05 2.63026e-05 2.6512e-05 2.67e-05 2.68682e-05 2.7018e-05 2.71508e-05 2.7268e-05 2.7371e-05 2.74612e-05 2.75397e-05 2.76079e-05 2.76667e-05 2.77173e-05 2.77607e-05 2.77976e-05 2.78289e-05 2.78554e-05 2.78777e-05 2.78964e-05 2.7912e-05 2.79249e-05 2.79356e-05 2.79444e-05 2.79516e-05 2.79575e-05 2.79623e-05 2.79661e-05 2.79692e-05 2.79717e-05 2.79737e-05 2.79753e-05 2.79766e-05 2.79775e-05 2.79783e-05 2.79789e-05 2.79794e-05 2.79797e-05 2.798e-05 2.79801e-05 2.79802e-05 2.79803e-05 2.79803e-05 2.79802e-05 2.79801e-05 2.798e-05 2.79797e-05 2.79794e-05 2.79789e-05 2.79783e-05 2.79775e-05 2.79766e-05 2.79753e-05 2.79737e-05 2.79717e-05 2.79692e-05 2.79661e-05 2.79623e-05 2.79575e-05 2.79516e-05 2.79444e-05 2.79356e-05 2.79249e-05 2.7912e-05 2.78964e-05 2.78777e-05 2.78554e-05 2.78289e-05 2.77976e-05 2.77607e-05 2.77173e-05 2.76667e-05 2.76079e-05 2.75397e-05 2.74612e-05 2.7371e-05 2.7268e-05 2.71508e-05 2.7018e-05 2.68682e-05 2.67e-05 2.6512e-05 2.63026e-05 2.60706e-05 2.58146e-05 2.55333e-05 2.52256e-05 2.48905e-05 2.45271e-05 2.41348e-05 2.37131e-05 2.32618e-05 2.27809e-05 2.22708e-05 2.17319e-05 2.11652e-05 2.05719e-05 1.99533e-05 1.93113e-05 1.86479e-05 1.79653e-05 1.72661e-05 1.6553e-05 1.58288e-05 1.50967e-05 1.43598e-05 1.36212e-05 1.28843e-05 1.21521e-05 1.1428e-05 1.07149e-05 1.00156e-05 9.33305e-06 8.66962e-06 8.02762e-06 7.40908e-06 6.81573e-06 6.24905e-06 5.71019e-06 5.20003e-06 4.71914e-06 4.26784e-06 3.84614e-06 3.45383e-06 3.09045e-06 2.75534e-06 2.44764e-06 2.16636e-06 1.91033e-06 1.67832e-06 1.46899e-06 1.28094e-06 1.11274e-06 9.62969e-07 8.30176e-07 7.12952e-07 6.09924e-07 5.19767e-07 4.41218e-07 3.73079e-07 3.1423e-07 2.63624e-07 2.20297e-07 1.83364e-07 1.52018e-07 1.25529e-07 1.03243e-07 8.45738e-08 6.9003e-08 5.60728e-08 4.5382e-08 3.65811e-08 2.93675e-08 2.34805e-08 1.86968e-08 1.48264e-08 1.17082e-08 9.20639e-09 7.2073e-09 5.61599e-09 4.3536e-09 3.35488e-09 2.566e-09 1.94261e-09 1.44814e-09 1.05231e-09 7.29805e-10 4.59126e-10 2.21515e-10 0 
0 3.19414e-10 6.62028e-10 1.05231e-09 1.51729e-09 2.08797e-09 2.80082e-09 3.69948e-09 4.83666e-09 6.27626e-09 8.09585e-09 1.03895e-08 1.32707e-08 1.68763e-08 2.13703e-08 2.6948e-08 3.38416e-08 4.23249e-08 5.27195e-08 6.5401e-08 8.08052e-08 9.94356e-08 1.2187e-07 1.48767e-07 1.80875e-07 2.19037e-07 2.64196e-07 3.17402e-07 3.79816e-07 4.52715e-07 5.37487e-07 6.35637e-07 7.48782e-07 8.78642e-07 1.02704e-06 1.19588e-06 1.38714e-06 1.60286e-06 1.8451e-06 2.11593e-06 2.41741e-06 2.75155e-06 3.12026e-06 3.52535e-06 3.96846e-06 4.45105e-06 4.97434e-06 5.53929e-06 6.14655e-06 6.79643e-06 7.48891e-06 8.22353e-06 8.99948e-06 9.81549e-06 1.06699e-05 1.15605e-05 1.2485e-05 1.34403e-05 1.44231e-05 1.543e-05 1.64568e-05 1.74995e-05 1.85537e-05 1.96148e-05 2.06783e-05 2.17394e-05 2.27936e-05 2.38363e-05 2.48631e-05 2.587e-05 2.68528e-05 2.78081e-05 2.87325e-05 2.96232e-05 3.04776e-05 3.12936e-05 3.20696e-05 3.28042e-05 3.34967e-05 3.41465e-05 3.47538e-05 3.53187e-05 3.5842e-05 3.63246e-05 3.67677e-05 3.71728e-05 3.75415e-05 3.78757e-05 3.81772e-05 3.8448e-05 3.86902e-05 3.89059e-05 3.90972e-05 3.92661e-05 3.94144e-05 3.95443e-05 3.96575e-05 3.97556e-05 3.98404e-05 3.99133e-05 3.99757e-05 4.00289e-05 4.00741e-05 4.01122e-05 4.01443e-05 4.01712e-05 4.01937e-05 4.02123e-05 4.02277e-05 4.02404e-05 4.02508e-05 4.02592e-05 4.02661e-05 4.02717e-05 4.02762e-05 4.02798e-05 4.02827e-05 4.0285e-05 4.02868e-05 4.02882e-05 4.02893e-05 4.02901e-05 4.02908e-05 4.02913e-05 4.02917e-05 4.02919e-05 4.02921e-05 4.02921e-05 4.02921e-05 4.02921e-05 4.02919e-05 4.02917e-05 4.02913e-05 4.02908e-05 4.02901e-05 4.02893e-05 4.02882e-05 4.02868e-05 4.0285e-05 4.02827e-05 4.02798e-05 4.02762e-05 4.02717e-05 4.02661e-05 4.02592e-05 4.02508e-05 4.02404e-05 4.02277e-05 4.02123e-05 4.01937e-05 4.01712e-05 4.01443e-05 4.01122e-05 4.00741e-05 4.00289e-05 3.99757e-05 3.99133e-05 3.98404e-05 3.97556e-05 3.96575e-05 3.95443e-05 3.94144e-05 3.92661e-05 3.90972e-05 3.89059e-05 3.86902e-05 3.8448e-05 3.81772e-05 3.78757e-05 3.75415e-05 3.71728e-05 3.67677e-05 3.63246e-05 3.5842e-05 3.53187e-05 3.47538e-05 3.41465e-05 3.34967e-05 3.28042e-05 3.20696e-05 3.12936e-05 3.04776e-05 2.96232e-05 2.87325e-05 2.78081e-05 2.68528e-05 2.587e-05 2.48631e-05 2.38363e-05 2.27936e-05 2.17394e-05 2.06783e-05 1.96148e-05 1.85537e-05 1.74995e-05 1.64568e-05 1.543e-05 1.44231e-05 1.34403e-05 1.2485e-05 1.15605e-05 1.06699e-05 9.81549e-06 8.99948e-06 8.22353e-06 7.48891e-06 6.79643e-06 6.14655e-06 5.53929e-06 4.97434e-06 4.45105e-06 3.96846e-06 3.52535e-06 3.12026e-06 2.75155e-06 2.41741e-06 2.11593e-06 1.8451e-06 1.60286e-06 1.38714e-06 1.19588e-06 1.02704e-06 8.78642e-07 7.48782e-07 6.35637e-07 5.37487e-07 4.52715e-07 3.79816e-07 3.17402e-07 2.64196e-07 2.19037e-07 1.80875e-07 1.48767e-07 1.2187e-07 9.94356e-08 8.08052e-08 6.5401e-08 5.27195e-08 4.23249e-08 3.38416e-08 2.6948e-08 2.13703e-08 1.68763e-08 1.32707e-08 1.03895e-08 8.09585e-09 6.27626e-09 4.83666e-09 3.69948e-09 2.80082e-09 2.08797e-09 1.51729e-09 1.05231e-09 6.62028e-10 3.19414e-10 0 
0 4.39579e-10 9.11075e-10 1.44814e-09 2.08797e-09 2.87319e-09 3.85398e-09 5.09035e-09 6.65477e-09 8.63514e-09 1.11381e-08 1.4293e-08 1.8256e-08 2.32152e-08 2.93958e-08 3.70667e-08 4.65469e-08 5.82129e-08 7.25066e-08 8.99443e-08 1.11125e-07 1.36741e-07 1.67586e-07 2.04566e-07 2.48709e-07 3.01172e-07 3.63252e-07 4.36394e-07 5.22192e-07 6.22398e-07 7.38922e-07 8.73831e-07 1.02935e-06 1.20783e-06 1.41179e-06 1.64384e-06 1.9067e-06 2.20316e-06 2.53607e-06 2.90826e-06 3.32256e-06 3.78173e-06 4.2884e-06 4.84505e-06 5.45395e-06 6.11707e-06 6.83612e-06 7.61239e-06 8.44678e-06 9.33974e-06 1.02912e-05 1.13006e-05 1.23667e-05 1.34879e-05 1.46618e-05 1.58855e-05 1.71556e-05 1.84681e-05 1.98185e-05 2.12017e-05 2.26125e-05 2.40451e-05 2.54934e-05 2.69513e-05 2.84124e-05 2.98703e-05 3.13186e-05 3.27512e-05 3.4162e-05 3.55452e-05 3.68956e-05 3.82081e-05 3.94782e-05 4.07019e-05 4.18758e-05 4.2997e-05 4.40631e-05 4.50725e-05 4.6024e-05 4.69169e-05 4.77513e-05 4.85276e-05 4.92466e-05 4.99098e-05 5.05186e-05 5.10753e-05 5.1582e-05 5.20411e-05 5.24554e-05 5.28276e-05 5.31605e-05 5.3457e-05 5.37199e-05 5.39519e-05 5.41559e-05 5.43344e-05 5.44899e-05 5.46248e-05 5.47413e-05 5.48415e-05 5.49273e-05 5.50005e-05 5.50625e-05 5.5115e-05 5.51591e-05 5.51961e-05 5.5227e-05 5.52526e-05 5.52738e-05 5.52912e-05 5.53055e-05 5.53171e-05 5.53266e-05 5.53343e-05 5.53405e-05 5.53454e-05 5.53494e-05 5.53525e-05 5.5355e-05 5.53569e-05 5.53585e-05 5.53596e-05 5.53605e-05 5.53612e-05 5.53617e-05 5.53621e-05 5.53623e-05 5.53624e-05 5.53624e-05 5.53623e-05 5.53621e-05 5.53617e-05 5.53612e-05 5.53605e-05 5.53596e-05 5.53585e-05 5.53569e-05 5.5355e-05 5.53525e-05 5.53494e-05 5.53454e-05 5.53405e-05 5.53343e-05 5.53266e-05 5.53171e-05 5.53055e-05 5.52912e-05 5.52738e-05 5.52526e-05 5.5227e-05 5.51961e-05 5.51591e-05 5.5115e-05 5.50625e-05 5.50005e-05 5.49273e-05 5.48415e-05 5.47413e-05 5.46248e-05 5.44899e-05 5.43344e-05 5.41559e-05 5.39519e-05 5.37199e-05 5.3457e-05 5.31605e-05 5.28276e-05 5.24554e-05 5.20411e-05 5.1582e-05 5.10753e-05 5.05186e-05 4.99098e-05 4.92466e-05 4.85276e-05 4.77513e-05 4.69169e-05 4.6024e-05 4.50725e-05 4.40631e-05 4.2997e-05 4.18758e-05 4.07019e-05 3.94782e-05 3.82081e-05 3.68956e-05 3.55452e-05 3.4162e-05 3.27512e-05 3.13186e-05 2.98703e-05 2.84124e-05 2.69513e-05 2.54934e-05 2.40451e-05 2.26125e-05 2.12017e-05 1.98185e-05 1.84681e-05 1.71556e-05 1.58855e-05 1.46618e-05 1.34879e-05 1.23667e-05 1.13006e-05 1.02912e-05 9.33974e-06 8.44678e-06 7.61239e-06 6.83612e-06 6.11707e-06 5.45395e-06 4.84505e-06 4.2884e-06 3.78173e-06 3.32256e-06 2.90826e-06 2.53607e-06 2.20316e-06 1.9067e-06 1.64384e-06 1.41179e-06 1.20783e-06 1.02935e-06 8.73831e-07 7.38922e-07 6.22398e-07 5.22192e-07 4.36394e-07 3.63252e-07 3.01172e-07 2.48709e-07 2.04566e-07 1.67586e-07 1.36741e-07 1.11125e-07 8.99443e-08 7.25066e-08 5.82129e-08 4.65469e-08 3.70667e-08 2.93958e-08 2.32152e-08 1.8256e-08 1.4293e-08 1.11381e-08 8.63514e-09 6.65477e-09 5.09035e-09 3.85398e-09 2.87319e-09 2.08797e-09 1.44814e-09 9.11075e-10 4.39579e-10 0 
0 5.89698e-10 1.22219e-09 1.94261e-09 2.80082e-09 3.85398e-09 5.16934e-09 6.82737e-09 8.92522e-09 1.15807e-08 1.49368e-08 1.91667e-08 2.44798e-08 3.11281e-08 3.94136e-08 4.96964e-08 6.24039e-08 7.80406e-08 9.71987e-08 1.2057e-07 1.48956e-07 1.83285e-07 2.24621e-07 2.74176e-07 3.33326e-07 4.03624e-07 4.86805e-07 5.84803e-07 6.99755e-07 8.34007e-07 9.90116e-07 1.17085e-06 1.37918e-06 1.61828e-06 1.8915e-06 2.20233e-06 2.55443e-06 2.95152e-06 3.39742e-06 3.89593e-06 4.45083e-06 5.0658e-06 5.74439e-06 6.48989e-06 7.30534e-06 8.19341e-06 9.15635e-06 1.01959e-05 1.13133e-05 1.25091e-05 1.37832e-05 1.51349e-05 1.65625e-05 1.80638e-05 1.96357e-05 2.12743e-05 2.29751e-05 2.47325e-05 2.65407e-05 2.83929e-05 3.0282e-05 3.22002e-05 3.41395e-05 3.60916e-05 3.80479e-05 4e-05 4.19394e-05 4.38576e-05 4.57466e-05 4.75988e-05 4.9407e-05 5.11645e-05 5.28652e-05 5.45038e-05 5.60757e-05 5.7577e-05 5.90047e-05 6.03563e-05 6.16304e-05 6.28262e-05 6.39436e-05 6.49832e-05 6.59461e-05 6.68342e-05 6.76496e-05 6.83952e-05 6.90737e-05 6.96887e-05 7.02436e-05 7.07421e-05 7.1188e-05 7.15851e-05 7.19372e-05 7.2248e-05 7.25213e-05 7.27604e-05 7.29687e-05 7.31494e-05 7.33055e-05 7.34398e-05 7.35547e-05 7.36527e-05 7.37359e-05 7.38062e-05 7.38654e-05 7.39149e-05 7.39563e-05 7.39906e-05 7.4019e-05 7.40423e-05 7.40615e-05 7.40771e-05 7.40898e-05 7.41001e-05 7.41084e-05 7.4115e-05 7.41203e-05 7.41245e-05 7.41278e-05 7.41305e-05 7.41325e-05 7.41341e-05 7.41353e-05 7.41362e-05 7.41369e-05 7.41374e-05 7.41376e-05 7.41378e-05 7.41378e-05 7.41376e-05 7.41374e-05 7.41369e-05 7.41362e-05 7.41353e-05 7.41341e-05 7.41325e-05 7.41305e-05 7.41278e-05 7.41245e-05 7.41203e-05 7.4115e-05 7.41084e-05 7.41001e-05 7.40898e-05 7.40771e-05 7.40615e-05 7.40423e-05 7.4019e-05 7.39906e-05 7.39563e-05 7.39149e-05 7.38654e-05 7.38062e-05 7.37359e-05 7.36527e-05 7.35547e-05 7.34398e-05 7.33055e-05 7.31494e-05 7.29687e-05 7.27604e-05 7.25213e-05 7.2248e-05 7.19372e-05 7.15851e-05 7.1188e-05 7.07421e-05 7.02436e-05 6.96887e-05 6.90737e-05 6.83952e-05 6.76496e-05 6.68342e-05 6.59461e-05 6.49832e-05 6.39436e-05 6.28262e-05 6.16304e-05 6.03563e-05 5.90047e-05 5.7577e-05 5.60757e-05 5.45038e-05 5.28652e-05 5.11645e-05 4.9407e-05 4.75988e-05 4.57466e-05 4.38576e-05 4.19394e-05 4e-05 3.80479e-05 3.60916e-05 3.41395e-05 3.22002e-05 3.0282e-05 2.83929e-05 2.65407e-05 2.47325e-05 2.29751e-05 2.12743e-05 1.96357e-05 1.80638e-05 1.65625e-05 1.51349e-05 1.37832e-05 1.25091e-05 1.13133e-05 1.01959e-05 9.15635e-06 8.19341e-06 7.30534e-06 6.48989e-06 5.74439e-06 5.0658e-06 4.45083e-06 3.89593e-06 3.39742e-06 2.95152e-06 2.55443e-06 2.20233e-06 1.8915e-06 1.61828e-06 1.37918e-06 1.17085e-06 9.90116e-07 8.34007e-07 6.99755e-07 5.84803e-07 4.86805e-07 4.03624e-07 3.33326e-07 2.74176e-07 2.24621e-07 1.83285e-07 1.48956e-07 1.2057e-07 9.71987e-08 7.80406e-08 6.24039e-08 4.96964e-08 3.94136e-08 3.11281e-08 2.44798e-08 1.91667e-08 1.49368e-08 1.15807e-08 8.92522e-09 6.82737e-09 5.16934e-09 3.85398e-09 2.80082e-09 1.94261e-09 1.22219e-09 5.89698e-10 0 
0 7.78968e-10 1.61444e-09 2.566e-09 3.69948e-09 5.09035e-09 6.82737e-09 9.01676e-09 1.17867e-08 1.52928e-08 1.97236e-08 2.53078e-08 3.23216e-08 4.10975e-08 5.2034e-08 6.56062e-08 8.2378e-08 1.03015e-07 1.28298e-07 1.59139e-07 1.96598e-07 2.41896e-07 2.96436e-07 3.6182e-07 4.39861e-07 5.32605e-07 6.42343e-07 7.71624e-07 9.23264e-07 1.10036e-06 1.30628e-06 1.54467e-06 1.81946e-06 2.13482e-06 2.49516e-06 2.90511e-06 3.36946e-06 3.89315e-06 4.48118e-06 5.13857e-06 5.87031e-06 6.68126e-06 7.57606e-06 8.55908e-06 9.63432e-06 1.08053e-05 1.20749e-05 1.34456e-05 1.49189e-05 1.64955e-05 1.81753e-05 1.99574e-05 2.18396e-05 2.38189e-05 2.58913e-05 2.80516e-05 3.02937e-05 3.26107e-05 3.49945e-05 3.74363e-05 3.99267e-05 4.24555e-05 4.50121e-05 4.75856e-05 5.01647e-05 5.27382e-05 5.52948e-05 5.78236e-05 6.0314e-05 6.27558e-05 6.51396e-05 6.74566e-05 6.96987e-05 7.1859e-05 7.39314e-05 7.59107e-05 7.77929e-05 7.9575e-05 8.12548e-05 8.28314e-05 8.43047e-05 8.56753e-05 8.6945e-05 8.8116e-05 8.91912e-05 9.01742e-05 9.1069e-05 9.188e-05 9.26117e-05 9.32691e-05 9.38571e-05 9.43808e-05 9.48452e-05 9.52551e-05 9.56155e-05 9.59308e-05 9.62056e-05 9.6444e-05 9.66499e-05 9.6827e-05 9.69787e-05 9.71079e-05 9.72177e-05 9.73104e-05 9.73885e-05 9.74539e-05 9.75084e-05 9.75537e-05 9.75912e-05 9.7622e-05 9.76473e-05 9.76679e-05 9.76847e-05 9.76982e-05 9.77092e-05 9.77179e-05 9.77249e-05 9.77305e-05 9.77349e-05 9.77383e-05 9.7741e-05 9.77431e-05 9.77447e-05 9.77459e-05 9.77468e-05 9.77474e-05 9.77478e-05 9.7748e-05 9.7748e-05 9.77478e-05 9.77474e-05 9.77468e-05 9.77459e-05 9.77447e-05 9.77431e-05 9.7741e-05 9.77383e-05 9.77349e-05 9.77305e-05 9.77249e-05 9.77179e-05 9.77092e-05 9.76982e-05 9.76847e-05 9.76679e-05 9.76473e-05 9.7622e-05 9.75912e-05 9.75537e-05 9.75084e-05 9.74539e-05 9.73885e-05 9.73104e-05 9.72177e-05 9.71079e-05 9.69787e-05 9.6827e-05 9.66499e-05 9.6444e-05 9.62056e-05 9.59308e-05 9.56155e-05 9.52551e-05 9.48452e-05 9.43808e-05 9.38571e-05 9.32691e-05 9.26117e-05 9.188e-05 9.1069e-05 9.01742e-05 8.91912e-05 8.8116e-05 8.6945e-05 8.56753e-05 8.43047e-05 8.28314e-05 8.12548e-05 7.9575e-05 7.77929e-05 7.59107e-05 7.39314e-05 7.1859e-05 6.96987e-05 6.74566e-05 6.51396e-05 6.27558e-05 6.0314e-05 5.78236e-05 5.52948e-05 5.27382e-05 5.01647e-05 4.75856e-05 4.50121e-05 4.24555e-05 3.99267e-05 3.74363e-05 3.49945e-05 3.26107e-05 3.02937e-05 2.80516e-05 2.58913e-05 2.38189e-05 2.18396e-05 1.99574e-05 1.81753e-05 1.64955e-05 1.49189e-05 1.34456e-05 1.20749e-05 1.08053e-05 9.63432e-06 8.55908e-06 7.57606e-06 6.68126e-06 5.87031e-06 5.13857e-06 4.48118e-06 3.89315e-06 3.36946e-06 2.90511e-06 2.49516e-06 2.13482e-06 1.81946e-06 1.54467e-06 1.30628e-06 1.10036e-06 9.23264e-07 7.71624e-07 6.42343e-07 5.32605e-07 4.39861e-07 3.6182e-07 2.96436e-07 2.41896e-07 1.96598e-07 1.59139e-07 1.28298e-07 1.03015e-07 8.2378e-08 6.56062e-08 5.2034e-08 4.10975e-08 3.23216e-08 2.53078e-08 1.97236e-08 1.52928e-08 1.17867e-08 9.01676e-09 6.82737e-09 5.09035e-09 3.69948e-09 2.566e-09 1.61444e-09 7.78968e-10 0 
0 1.01849e-09 2.11083e-09 3.35488e-09 4.83666e-09 6.65477e-09 8.92522e-09 1.17867e-08 1.54069e-08 1.99887e-08 2.57786e-08 3.30753e-08 4.22396e-08 5.37056e-08 6.79937e-08 8.57244e-08 1.07634e-07 1.34591e-07 1.67615e-07 2.07898e-07 2.56822e-07 3.15983e-07 3.87211e-07 4.72595e-07 5.74506e-07 6.95611e-07 8.38901e-07 1.0077e-06 1.20569e-06 1.4369e-06 1.70574e-06 2.01696e-06 2.37569e-06 2.78736e-06 3.25775e-06 3.79287e-06 4.39899e-06 5.08254e-06 5.85005e-06 6.70808e-06 7.66311e-06 8.7215e-06 9.8893e-06 1.11722e-05 1.25754e-05 1.41036e-05 1.57605e-05 1.75491e-05 1.94716e-05 2.1529e-05 2.3721e-05 2.60464e-05 2.85024e-05 3.10851e-05 3.37892e-05 3.66081e-05 3.95337e-05 4.25568e-05 4.56672e-05 4.88532e-05 5.21026e-05 5.54022e-05 5.8738e-05 6.20958e-05 6.54609e-05 6.88187e-05 7.21545e-05 7.5454e-05 7.87035e-05 8.18895e-05 8.49999e-05 8.8023e-05 9.09486e-05 9.37675e-05 9.64716e-05 9.90543e-05 0.00010151 0.000103836 0.000106028 0.000108085 0.000110008 0.000111796 0.000113453 0.000114981 0.000116384 0.000117667 0.000118835 0.000119894 0.000120849 0.000121707 0.000122474 0.000123158 0.000123764 0.000124299 0.000124769 0.000125181 0.00012554 0.000125851 0.00012612 0.000126351 0.000126549 0.000126718 0.000126861 0.000126982 0.000127084 0.000127169 0.000127241 0.0001273 0.000127349 0.000127389 0.000127422 0.000127449 0.000127471 0.000127489 0.000127503 0.000127514 0.000127524 0.000127531 0.000127537 0.000127541 0.000127545 0.000127547 0.000127549 0.000127551 0.000127552 0.000127553 0.000127553 0.000127554 0.000127554 0.000127553 0.000127553 0.000127552 0.000127551 0.000127549 0.000127547 0.000127545 0.000127541 0.000127537 0.000127531 0.000127524 0.000127514 0.000127503 0.000127489 0.000127471 0.000127449 0.000127422 0.000127389 0.000127349 0.0001273 0.000127241 0.000127169 0.000127084 0.000126982 0.000126861 0.000126718 0.000126549 0.000126351 0.00012612 0.000125851 0.00012554 0.000125181 0.000124769 0.000124299 0.000123764 0.000123158 0.000122474 0.000121707 0.000120849 0.000119894 0.000118835 0.000117667 0.000116384 0.000114981 0.000113453 0.000111796 0.000110008 0.000108085 0.000106028 0.000103836 0.00010151 9.90543e-05 9.64716e-05 9.37675e-05 9.09486e-05 8.8023e-05 8.49999e-05 8.18895e-05 7.87035e-05 7.5454e-05 7.21545e-05 6.88187e-05 6.54609e-05 6.20958e-05 5.8738e-05 5.54022e-05 5.21026e-05 4.88532e-05 4.56672e-05 4.25568e-05 3.95337e-05 3.66081e-05 3.37892e-05 3.10851e-05 2.85024e-05 2.60464e-05 2.3721e-05 2.1529e-05 1.94716e-05 1.75491e-05 1.57605e-05 1.41036e-05 1.25754e-05 1.11722e-05 9.8893e-06 8.7215e-06 7.66311e-06 6.70808e-06 5.85005e-06 5.08254e-06 4.39899e-06 3.79287e-06 3.25775e-06 2.78736e-06 2.37569e-06 2.01696e-06 1.70574e-06 1.4369e-06 1.20569e-06 1.0077e-06 8.38901e-07 6.95611e-07 5.74506e-07 4.72595e-07 3.87211e-07 3.15983e-07 2.56822e-07 2.07898e-07 1.67615e-07 1.34591e-07 1.07634e-07 8.57244e-08 6.79937e-08 5.37056e-08 4.22396e-08 3.30753e-08 2.57786e-08 1.99887e-08 1.54069e-08 1.17867e-08 8.92522e-09 6.65477e-09 4.83666e-09 3.35488e-09 2.11083e-09 1.01849e-09 0 
0 1.32175e-09 2.73929e-09 4.3536e-09 6.27626e-09 8.63514e-09 1.15807e-08 1.52928e-08 1.99887e-08 2.59316e-08 3.34412e-08 4.29045e-08 5.47891e-08 6.9658e-08 8.81854e-08 1.11176e-07 1.39583e-07 1.74533e-07 2.17347e-07 2.69569e-07 3.3299e-07 4.09677e-07 5.02003e-07 6.12674e-07 7.44758e-07 9.01715e-07 1.08742e-06 1.30617e-06 1.56274e-06 1.86235e-06 2.21071e-06 2.61397e-06 3.07877e-06 3.61215e-06 4.22159e-06 4.91487e-06 5.70012e-06 6.58566e-06 7.57993e-06 8.69143e-06 9.92858e-06 1.12996e-05 1.28122e-05 1.4474e-05 1.62915e-05 1.82708e-05 2.04169e-05 2.27335e-05 2.52235e-05 2.78881e-05 3.0727e-05 3.37386e-05 3.69194e-05 4.02642e-05 4.37662e-05 4.74167e-05 5.12055e-05 5.51205e-05 5.91485e-05 6.32745e-05 6.74825e-05 7.17554e-05 7.60753e-05 8.04236e-05 8.47814e-05 8.91297e-05 9.34495e-05 9.77224e-05 0.00010193 0.000106056 0.000110084 0.000113999 0.000117788 0.000121439 0.000124941 0.000128286 0.000131466 0.000134478 0.000137317 0.000139981 0.000142471 0.000144788 0.000146934 0.000148913 0.000150731 0.000152393 0.000153905 0.000155276 0.000156514 0.000157625 0.000158619 0.000159505 0.00016029 0.000160983 0.000161593 0.000162126 0.000162591 0.000162994 0.000163343 0.000163642 0.000163899 0.000164118 0.000164303 0.00016446 0.000164592 0.000164703 0.000164795 0.000164872 0.000164935 0.000164988 0.00016503 0.000165065 0.000165094 0.000165117 0.000165135 0.00016515 0.000165162 0.000165171 0.000165179 0.000165185 0.000165189 0.000165193 0.000165195 0.000165197 0.000165199 0.0001652 0.000165201 0.000165201 0.000165201 0.000165201 0.0001652 0.000165199 0.000165197 0.000165195 0.000165193 0.000165189 0.000165185 0.000165179 0.000165171 0.000165162 0.00016515 0.000165135 0.000165117 0.000165094 0.000165065 0.00016503 0.000164988 0.000164935 0.000164872 0.000164795 0.000164703 0.000164592 0.00016446 0.000164303 0.000164118 0.000163899 0.000163642 0.000163343 0.000162994 0.000162591 0.000162126 0.000161593 0.000160983 0.00016029 0.000159505 0.000158619 0.000157625 0.000156514 0.000155276 0.000153905 0.000152393 0.000150731 0.000148913 0.000146934 0.000144788 0.000142471 0.000139981 0.000137317 0.000134478 0.000131466 0.000128286 0.000124941 0.000121439 0.000117788 0.000113999 0.000110084 0.000106056 0.00010193 9.77224e-05 9.34495e-05 8.91297e-05 8.47814e-05 8.04236e-05 7.60753e-05 7.17554e-05 6.74825e-05 6.32745e-05 5.91485e-05 5.51205e-05 5.12055e-05 4.74167e-05 4.37662e-05 4.02642e-05 3.69194e-05 3.37386e-05 3.0727e-05 2.78881e-05 2.52235e-05 2.27335e-05 2.04169e-05 1.82708e-05 1.62915e-05 1.4474e-05 1.28122e-05 1.12996e-05 9.92858e-06 8.69143e-06 7.57993e-06 6.58566e-06 5.70012e-06 4.91487e-06 4.22159e-06 3.61215e-06 3.07877e-06 2.61397e-06 2.21071e-06 1.86235e-06 1.56274e-06 1.30617e-06 1.08742e-06 9.01715e-07 7.44758e-07 6.12674e-07 5.02003e-07 4.09677e-07 3.3299e-07 2.69569e-07 2.17347e-07 1.74533e-07 1.39583e-07 1.11176e-07 8.81854e-08 6.9658e-08 5.47891e-08 4.29045e-08 3.34412e-08 2.59316e-08 1.99887e-08 1.52928e-08 1.15807e-08 8.63514e-09 6.27626e-09 4.3536e-09 2.73929e-09 1.32175e-09 0 