<?xml version="1.0"?>
<VTKFile type="ImageData" version="0.1" byte_order="LittleEndian">
  <ImageData WholeExtent="0 255 0 255 0 0" Origin="0 0 0" Spacing="1 1 1">
  <Piece Extent="0 255 0 255 0 0">
    <PointData>
      <DataArray type="Float32" Name="scalar_data" format="ascii" >0 0 0 0 0 0 0 0 0 0 0 0 0 0 0 0 0 0 0 0 0 0 0 0 0 0 0 0 0 0 0 0 0 0 0 0 0 0 0 0 0 0 0 0 0 0 0 0 0 0 0 0 0 0 0 0 0 0 0 0 0 0 0 0 0 0 0 0 0 0 0 0 0 0 0 0 0 0 0 0 0 0 0 0 0 0 0 0 0 0 0 0 0 0 0 0 0 0 0 0 0 0 0 0 0 0 0 0 0 0 0 0 0 0 0 0 0 0 0 0 0 0 0 0 0 0 0 0 0 0 0 0 0 0 0 0 0 0 0 0 0 0 0 0 0 0 0 0 0 0 0 0 0 0 0 0 0 0 0 0 0 0 0 0 0 0 0 0 0 0 0 0 0 0 0 0 0 0 0 0 0 0 0 0 0 0 0 0 0 0 0 0 0 0 0 0 0 0 0 0 0 0 0 0 0 0 0 0 0 0 0 0 0 0 0 0 0 0 0 0 0 0 0 0 0 0 0 0 0 0 0 0 0 0 0 0 0 0 0 0 0 0 0 0 0 0 0 0 0 0 0 0 0 0 0 0 
0 1.10529e-11 2.31022e-11 3.72144e-11 5.45984e-11 7.6686e-11 1.05221e-10 1.42362e-10 1.90806e-10 2.53926e-10 3.35943e-10 4.42118e-10 5.78991e-10 7.54645e-10 9.79022e-10 1.26428e-09 1.62522e-09 2.07973e-09 2.6493e-09 3.35963e-09 4.24125e-09 5.33017e-09 6.66865e-09 8.30594e-09 1.02991e-08 1.27137e-08 1.56248e-08 1.91175e-08 2.32877e-08 2.82429e-08 3.41021e-08 4.09971e-08 4.90714e-08 5.84813e-08 6.93944e-08 8.19896e-08 9.6456e-08 1.12991e-07 1.31799e-07 1.53089e-07 1.77071e-07 2.03956e-07 2.33948e-07 2.67245e-07 3.04031e-07 3.44475e-07 3.88726e-07 4.36907e-07 4.89113e-07 5.45405e-07 6.0581e-07 6.70314e-07 7.3886e-07 8.11349e-07 8.87635e-07 9.67529e-07 1.05079e-06 1.13715e-06 1.22628e-06 1.31783e-06 1.41141e-06 1.50659e-06 1.60293e-06 1.69998e-06 1.79727e-06 1.89432e-06 1.99067e-06 2.08585e-06 2.17942e-06 2.27097e-06 2.3601e-06 2.44646e-06 2.52973e-06 2.60962e-06 2.68591e-06 2.7584e-06 2.82694e-06 2.89145e-06 2.95185e-06 3.00814e-06 3.06035e-06 3.10853e-06 3.15278e-06 3.19323e-06 3.23001e-06 3.26331e-06 3.2933e-06 3.32018e-06 3.34417e-06 3.36546e-06 3.38427e-06 3.4008e-06 3.41527e-06 3.42786e-06 3.43877e-06 3.44818e-06 3.45626e-06 3.46315e-06 3.46901e-06 3.47397e-06 3.47814e-06 3.48163e-06 3.48454e-06 3.48696e-06 3.48895e-06 3.49059e-06 3.49193e-06 3.49301e-06 3.4939e-06 3.49461e-06 3.49518e-06 3.49563e-06 3.49599e-06 3.49628e-06 3.4965e-06 3.49668e-06 3.49681e-06 3.49692e-06 3.497e-06 3.49706e-06 3.49711e-06 3.49715e-06 3.49717e-06 3.49719e-06 3.49721e-06 3.49722e-06 3.49722e-06 3.49723e-06 3.49723e-06 3.49722e-06 3.49722e-06 3.49721e-06 3.49719e-06 3.49717e-06 3.49715e-06 3.49711e-06 3.49706e-06 3.497e-06 3.49692e-06 3.49681e-06 3.49668e-06 3.4965e-06 3.49628e-06 3.49599e-06 3.49563e-06 3.49518e-06 3.49461e-06 3.4939e-06 3.49301e-06 3.49193e-06 3.49059e-06 3.48895e-06 3.48696e-06 3.48454e-06 3.48163e-06 3.47814e-06 3.47397e-06 3.46901e-06 3.46315e-06 3.45626e-06 3.44818e-06 3.43877e-06 3.42786e-06 3.41527e-06 3.4008e-06 3.38427e-06 3.36546e-06 3.34417e-06 3.32018e-06 3.2933e-06 3.26331e-06 3.23001e-06 3.19323e-06 3.15278e-06 3.10853e-06 3.06035e-06 3.00814e-06 2.95185e-06 2.89145e-06 2.82694e-06 2.7584e-06 2.68591e-06 2.60962e-06 2.52973e-06 2.44646e-06 2.3601e-06 2.27097e-06 2.17942e-06 2.08585e-06 1.99067e-06 1.89432e-06 1.79727e-06 1.69998e-06 1.60293e-06 1.50659e-06 1.41141e-06 1.31783e-06 1.22628e-06 1.13715e-06 1.05079e-06 9.67529e-07 8.87635e-07 8.11349e-07 7.3886e-07 6.70314e-07 6.0581e-07 5.45405e-07 4.89113e-07 4.36907e-07 3.88726e-07 3.44475e-07 3.04031e-07 2.67245e-07 2.33948e-07 2.03956e-07 1.77071e-07 1.53089e-07 1.31799e-07 1.12991e-07 9.6456e-08 8.19896e-08 6.93944e-08 5.84813e-08 4.90714e-08 4.09971e-08 3.41021e-08 2.82429e-08 2.32877e-08 1.91175e-08 1.56248e-08 1.27137e-08 1.02991e-08 8.30594e-09 6.66865e-09 5.33017e-09 4.24125e-09 3.35963e-09 2.6493e-09 2.07973e-09 1.62522e-09 1.26428e-09 9.79022e-10 7.54645e-10 5.78991e-10 4.42118e-10 3.35943e-10 2.53926e-10 1.90806e-10 1.42362e-10 1.05221e-10 7.6686e-11 5.45984e-11 3.72144e-11 2.31022e-11 1.10529e-11 0 
0 2.31022e-11 4.82868e-11 7.7782e-11 1.14114e-10 1.60275e-10 2.19908e-10 2.97525e-10 3.98758e-10 5.30656e-10 7.02035e-10 9.2389e-10 1.20988e-09 1.57689e-09 2.04569e-09 2.64169e-09 3.39578e-09 4.34532e-09 5.53524e-09 7.01919e-09 8.86092e-09 1.11357e-08 1.39317e-08 1.73519e-08 2.15153e-08 2.6559e-08 3.26397e-08 3.9935e-08 4.86454e-08 5.8995e-08 7.12329e-08 8.56336e-08 1.02497e-07 1.2215e-07 1.44942e-07 1.71247e-07 2.01459e-07 2.35991e-07 2.75269e-07 3.1973e-07 3.69813e-07 4.25956e-07 4.88588e-07 5.5812e-07 6.34938e-07 7.19394e-07 8.11799e-07 9.12409e-07 1.02142e-06 1.13897e-06 1.2651e-06 1.39979e-06 1.54292e-06 1.69429e-06 1.85358e-06 2.0204e-06 2.19426e-06 2.37458e-06 2.5607e-06 2.75185e-06 2.94724e-06 3.14598e-06 3.34715e-06 3.54979e-06 3.75293e-06 3.95558e-06 4.15675e-06 4.35549e-06 4.55087e-06 4.74203e-06 4.92814e-06 5.10846e-06 5.28232e-06 5.44915e-06 5.60844e-06 5.7598e-06 5.90293e-06 6.03762e-06 6.16376e-06 6.2813e-06 6.39032e-06 6.49093e-06 6.58333e-06 6.66779e-06 6.74461e-06 6.81414e-06 6.87677e-06 6.93291e-06 6.983e-06 7.02746e-06 7.06674e-06 7.10127e-06 7.13148e-06 7.15778e-06 7.18058e-06 7.20023e-06 7.21709e-06 7.23149e-06 7.24373e-06 7.25408e-06 7.26279e-06 7.27009e-06 7.27617e-06 7.28121e-06 7.28537e-06 7.28879e-06 7.29159e-06 7.29387e-06 7.29571e-06 7.29719e-06 7.29838e-06 7.29933e-06 7.30008e-06 7.30068e-06 7.30115e-06 7.30152e-06 7.3018e-06 7.30202e-06 7.30219e-06 7.30232e-06 7.30242e-06 7.3025e-06 7.30255e-06 7.3026e-06 7.30263e-06 7.30265e-06 7.30266e-06 7.30267e-06 7.30267e-06 7.30266e-06 7.30265e-06 7.30263e-06 7.3026e-06 7.30255e-06 7.3025e-06 7.30242e-06 7.30232e-06 7.30219e-06 7.30202e-06 7.3018e-06 7.30152e-06 7.30115e-06 7.30068e-06 7.30008e-06 7.29933e-06 7.29838e-06 7.29719e-06 7.29571e-06 7.29387e-06 7.29159e-06 7.28879e-06 7.28537e-06 7.28121e-06 7.27617e-06 7.27009e-06 7.26279e-06 7.25408e-06 7.24373e-06 7.23149e-06 7.21709e-06 7.20023e-06 7.18058e-06 7.15778e-06 7.13148e-06 7.10127e-06 7.06674e-06 7.02746e-06 6.983e-06 6.93291e-06 6.87677e-06 6.81414e-06 6.74461e-06 6.66779e-06 6.58333e-06 6.49093e-06 6.39032e-06 6.2813e-06 6.16376e-06 6.03762e-06 5.90293e-06 5.7598e-06 5.60844e-06 5.44915e-06 5.28232e-06 5.10846e-06 4.92814e-06 4.74203e-06 4.55087e-06 4.35549e-06 4.15675e-06 3.95558e-06 3.75293e-06 3.54979e-06 3.34715e-06 3.14598e-06 2.94724e-06 2.75185e-06 2.5607e-06 2.37458e-06 2.19426e-06 2.0204e-06 1.85358e-06 1.69429e-06 1.54292e-06 1.39979e-06 1.2651e-06 1.13897e-06 1.02142e-06 9.12409e-07 8.11799e-07 7.19394e-07 6.34938e-07 5.5812e-07 4.88588e-07 4.25956e-07 3.69813e-07 3.1973e-07 2.75269e-07 2.35991e-07 2.01459e-07 1.71247e-07 1.44942e-07 1.2215e-07 1.02497e-07 8.56336e-08 7.12329e-08 5.8995e-08 4.86454e-08 3.9935e-08 3.26397e-08 2.6559e-08 2.15153e-08 1.73519e-08 1.39317e-08 1.11357e-08 8.86092e-09 7.01919e-09 5.53524e-09 4.34532e-09 3.39578e-09 2.64169e-09 2.04569e-09 1.57689e-09 1.20988e-09 9.2389e-10 7.02035e-10 5.30656e-10 3.98758e-10 2.97525e-10 2.19908e-10 1.60275e-10 1.14114e-10 7.7782e-11 4.82868e-11 2.31022e-11 0 
0 3.72144e-11 7.7782e-11 1.25291e-10 1.83809e-10 2.58154e-10 3.5419e-10 4.79183e-10 6.42197e-10 8.54581e-10 1.13053e-09 1.48773e-09 1.94817e-09 2.53904e-09 3.29375e-09 4.25319e-09 5.46708e-09 6.99554e-09 8.91085e-09 1.12994e-08 1.42637e-08 1.79248e-08 2.24247e-08 2.79289e-08 3.4629e-08 4.27456e-08 5.25305e-08 6.42698e-08 7.82856e-08 9.49386e-08 1.14629e-07 1.378e-07 1.64932e-07 1.96551e-07 2.3322e-07 2.75539e-07 3.24143e-07 3.79695e-07 4.42882e-07 5.14404e-07 5.94969e-07 6.85281e-07 7.86029e-07 8.97874e-07 1.02144e-06 1.15728e-06 1.30591e-06 1.46774e-06 1.64308e-06 1.83214e-06 2.03501e-06 2.25165e-06 2.48185e-06 2.72529e-06 2.98149e-06 3.24979e-06 3.52941e-06 3.81942e-06 4.11874e-06 4.42617e-06 4.74041e-06 5.06004e-06 5.38357e-06 5.70948e-06 6.03617e-06 6.36208e-06 6.68561e-06 7.00524e-06 7.31947e-06 7.62691e-06 7.92623e-06 8.21624e-06 8.49586e-06 8.76416e-06 9.02036e-06 9.2638e-06 9.494e-06 9.71063e-06 9.91351e-06 1.01026e-05 1.02779e-05 1.04397e-05 1.05884e-05 1.07242e-05 1.08478e-05 1.09596e-05 1.10604e-05 1.11507e-05 1.12312e-05 1.13028e-05 1.1366e-05 1.14215e-05 1.14701e-05 1.15124e-05 1.15491e-05 1.15807e-05 1.16078e-05 1.1631e-05 1.16507e-05 1.16674e-05 1.16814e-05 1.16931e-05 1.17029e-05 1.1711e-05 1.17177e-05 1.17232e-05 1.17277e-05 1.17314e-05 1.17344e-05 1.17367e-05 1.17387e-05 1.17402e-05 1.17414e-05 1.17424e-05 1.17431e-05 1.17437e-05 1.17442e-05 1.17445e-05 1.17448e-05 1.1745e-05 1.17452e-05 1.17453e-05 1.17454e-05 1.17454e-05 1.17455e-05 1.17455e-05 1.17455e-05 1.17456e-05 1.17456e-05 1.17455e-05 1.17455e-05 1.17455e-05 1.17454e-05 1.17454e-05 1.17453e-05 1.17452e-05 1.1745e-05 1.17448e-05 1.17445e-05 1.17442e-05 1.17437e-05 1.17431e-05 1.17424e-05 1.17414e-05 1.17402e-05 1.17387e-05 1.17367e-05 1.17344e-05 1.17314e-05 1.17277e-05 1.17232e-05 1.17177e-05 1.1711e-05 1.17029e-05 1.16931e-05 1.16814e-05 1.16674e-05 1.16507e-05 1.1631e-05 1.16078e-05 1.15807e-05 1.15491e-05 1.15124e-05 1.14701e-05 1.14215e-05 1.1366e-05 1.13028e-05 1.12312e-05 1.11507e-05 1.10604e-05 1.09596e-05 1.08478e-05 1.07242e-05 1.05884e-05 1.04397e-05 1.02779e-05 1.01026e-05 9.91351e-06 9.71063e-06 9.494e-06 9.2638e-06 9.02036e-06 8.76416e-06 8.49586e-06 8.21624e-06 7.92623e-06 7.62691e-06 7.31947e-06 7.00524e-06 6.68561e-06 6.36208e-06 6.03617e-06 5.70948e-06 5.38357e-06 5.06004e-06 4.74041e-06 4.42617e-06 4.11874e-06 3.81942e-06 3.52941e-06 3.24979e-06 2.98149e-06 2.72529e-06 2.48185e-06 2.25165e-06 2.03501e-06 1.83214e-06 1.64308e-06 1.46774e-06 1.30591e-06 1.15728e-06 1.02144e-06 8.97874e-07 7.86029e-07 6.85281e-07 5.94969e-07 5.14404e-07 4.42882e-07 3.79695e-07 3.24143e-07 2.75539e-07 2.3322e-07 1.96551e-07 1.64932e-07 1.378e-07 1.14629e-07 9.49386e-08 7.82856e-08 6.42698e-08 5.25305e-08 4.27456e-08 3.4629e-08 2.79289e-08 2.24247e-08 1.79248e-08 1.42637e-08 1.12994e-08 8.91085e-09 6.99554e-09 5.46708e-09 4.25319e-09 3.29375e-09 2.53904e-09 1.94817e-09 1.48773e-09 1.13053e-09 8.54581e-10 6.42197e-10 4.79183e-10 3.5419e-10 2.58154e-10 1.83809e-10 1.25291e-10 7.7782e-11 3.72144e-11 0 
0 5.45984e-11 1.14114e-10 1.83809e-10 2.69649e-10 3.78695e-10 5.19548e-10 7.02858e-10 9.41913e-10 1.25335e-09 1.65796e-09 2.1817e-09 2.85677e-09 3.723e-09 4.82939e-09 6.23582e-09 8.01516e-09 1.02555e-08 1.30627e-08 1.65634e-08 2.09076e-08 2.62729e-08 3.28671e-08 4.09327e-08 5.07503e-08 6.26429e-08 7.69794e-08 9.41786e-08 1.14713e-07 1.39109e-07 1.67955e-07 2.01897e-07 2.41642e-07 2.87957e-07 3.41668e-07 4.03653e-07 4.74842e-07 5.56205e-07 6.48747e-07 7.53494e-07 8.71482e-07 1.00374e-06 1.15128e-06 1.31507e-06 1.49601e-06 1.69494e-06 1.91258e-06 2.14954e-06 2.40628e-06 2.68311e-06 2.98016e-06 3.29735e-06 3.63441e-06 3.99085e-06 4.36596e-06 4.75879e-06 5.16819e-06 5.59279e-06 6.03103e-06 6.48113e-06 6.9412e-06 7.40916e-06 7.88284e-06 8.35998e-06 8.83829e-06 9.31544e-06 9.78912e-06 1.02571e-05 1.07171e-05 1.11672e-05 1.16055e-05 1.20301e-05 1.24395e-05 1.28323e-05 1.32074e-05 1.35639e-05 1.39009e-05 1.42181e-05 1.45152e-05 1.4792e-05 1.50487e-05 1.52857e-05 1.55033e-05 1.57023e-05 1.58832e-05 1.6047e-05 1.61945e-05 1.63268e-05 1.64448e-05 1.65495e-05 1.66421e-05 1.67234e-05 1.67946e-05 1.68566e-05 1.69103e-05 1.69566e-05 1.69964e-05 1.70303e-05 1.70592e-05 1.70836e-05 1.71041e-05 1.71213e-05 1.71356e-05 1.71475e-05 1.71573e-05 1.71654e-05 1.7172e-05 1.71774e-05 1.71817e-05 1.71852e-05 1.7188e-05 1.71903e-05 1.7192e-05 1.71934e-05 1.71946e-05 1.71954e-05 1.71961e-05 1.71966e-05 1.7197e-05 1.71973e-05 1.71976e-05 1.71977e-05 1.71979e-05 1.7198e-05 1.7198e-05 1.71981e-05 1.71981e-05 1.71981e-05 1.71981e-05 1.71981e-05 1.71981e-05 1.7198e-05 1.7198e-05 1.71979e-05 1.71977e-05 1.71976e-05 1.71973e-05 1.7197e-05 1.71966e-05 1.71961e-05 1.71954e-05 1.71946e-05 1.71934e-05 1.7192e-05 1.71903e-05 1.7188e-05 1.71852e-05 1.71817e-05 1.71774e-05 1.7172e-05 1.71654e-05 1.71573e-05 1.71475e-05 1.71356e-05 1.71213e-05 1.71041e-05 1.70836e-05 1.70592e-05 1.70303e-05 1.69964e-05 1.69566e-05 1.69103e-05 1.68566e-05 1.67946e-05 1.67234e-05 1.66421e-05 1.65495e-05 1.64448e-05 1.63268e-05 1.61945e-05 1.6047e-05 1.58832e-05 1.57023e-05 1.55033e-05 1.52857e-05 1.50487e-05 1.4792e-05 1.45152e-05 1.42181e-05 1.39009e-05 1.35639e-05 1.32074e-05 1.28323e-05 1.24395e-05 1.20301e-05 1.16055e-05 1.11672e-05 1.07171e-05 1.02571e-05 9.78912e-06 9.31544e-06 8.83829e-06 8.35998e-06 7.88284e-06 7.40916e-06 6.9412e-06 6.48113e-06 6.03103e-06 5.59279e-06 5.16819e-06 4.75879e-06 4.36596e-06 3.99085e-06 3.63441e-06 3.29735e-06 2.98016e-06 2.68311e-06 2.40628e-06 2.14954e-06 1.91258e-06 1.69494e-06 1.49601e-06 1.31507e-06 1.15128e-06 1.00374e-06 8.71482e-07 7.53494e-07 6.48747e-07 5.56205e-07 4.74842e-07 4.03653e-07 3.41668e-07 2.87957e-07 2.41642e-07 2.01897e-07 1.67955e-07 1.39109e-07 1.14713e-07 9.41786e-08 7.69794e-08 6.26429e-08 5.07503e-08 4.09327e-08 3.28671e-08 2.62729e-08 2.09076e-08 1.65634e-08 1.30627e-08 1.02555e-08 8.01516e-09 6.23582e-09 4.82939e-09 3.723e-09 2.85677e-09 2.1817e-09 1.65796e-09 1.25335e-09 9.41913e-10 7.02858e-10 5.19548e-10 3.78695e-10 2.69649e-10 1.83809e-10 1.14114e-10 5.45984e-11 0 
0 7.6686e-11 1.60275e-10 2.58154e-10 3.78695e-10 5.31811e-10 7.29572e-10 9.86921e-10 1.32251e-09 1.75967e-09 2.32759e-09 3.06266e-09 4.01006e-09 5.22568e-09 6.7782e-09 8.75165e-09 1.12482e-08 1.43914e-08 1.83297e-08 2.32405e-08 2.93345e-08 3.68603e-08 4.61094e-08 5.74217e-08 7.11907e-08 8.78689e-08 1.07974e-07 1.32092e-07 1.60885e-07 1.95093e-07 2.35538e-07 2.83125e-07 3.38847e-07 4.03778e-07 4.79073e-07 5.65966e-07 6.65757e-07 7.79807e-07 9.09522e-07 1.05634e-06 1.22171e-06 1.40708e-06 1.61386e-06 1.84341e-06 2.09699e-06 2.37577e-06 2.68077e-06 3.01283e-06 3.37262e-06 3.76055e-06 4.17679e-06 4.62126e-06 5.09356e-06 5.59301e-06 6.11861e-06 6.66903e-06 7.24267e-06 7.83761e-06 8.45164e-06 9.0823e-06 9.72691e-06 1.03826e-05 1.10463e-05 1.17148e-05 1.2385e-05 1.30535e-05 1.37172e-05 1.43728e-05 1.50175e-05 1.56481e-05 1.62621e-05 1.68571e-05 1.74307e-05 1.79812e-05 1.85067e-05 1.90062e-05 1.94785e-05 1.9923e-05 2.03392e-05 2.07271e-05 2.10869e-05 2.1419e-05 2.1724e-05 2.20028e-05 2.22563e-05 2.24859e-05 2.26927e-05 2.2878e-05 2.30434e-05 2.31902e-05 2.33199e-05 2.3434e-05 2.35338e-05 2.36207e-05 2.3696e-05 2.37609e-05 2.38166e-05 2.38642e-05 2.39047e-05 2.39389e-05 2.39677e-05 2.39918e-05 2.40119e-05 2.40286e-05 2.40423e-05 2.40536e-05 2.40629e-05 2.40704e-05 2.40765e-05 2.40814e-05 2.40854e-05 2.40885e-05 2.4091e-05 2.4093e-05 2.40945e-05 2.40957e-05 2.40967e-05 2.40974e-05 2.4098e-05 2.40984e-05 2.40988e-05 2.4099e-05 2.40992e-05 2.40993e-05 2.40994e-05 2.40995e-05 2.40995e-05 2.40996e-05 2.40996e-05 2.40995e-05 2.40995e-05 2.40994e-05 2.40993e-05 2.40992e-05 2.4099e-05 2.40988e-05 2.40984e-05 2.4098e-05 2.40974e-05 2.40967e-05 2.40957e-05 2.40945e-05 2.4093e-05 2.4091e-05 2.40885e-05 2.40854e-05 2.40814e-05 2.40765e-05 2.40704e-05 2.40629e-05 2.40536e-05 2.40423e-05 2.40286e-05 2.40119e-05 2.39918e-05 2.39677e-05 2.39389e-05 2.39047e-05 2.38642e-05 2.38166e-05 2.37609e-05 2.3696e-05 2.36207e-05 2.35338e-05 2.3434e-05 2.33199e-05 2.31902e-05 2.30434e-05 2.2878e-05 2.26927e-05 2.24859e-05 2.22563e-05 2.20028e-05 2.1724e-05 2.1419e-05 2.10869e-05 2.07271e-05 2.03392e-05 1.9923e-05 1.94785e-05 1.90062e-05 1.85067e-05 1.79812e-05 1.74307e-05 1.68571e-05 1.62621e-05 1.56481e-05 1.50175e-05 1.43728e-05 1.37172e-05 1.30535e-05 1.2385e-05 1.17148e-05 1.10463e-05 1.03826e-05 9.72691e-06 9.0823e-06 8.45164e-06 7.83761e-06 7.24267e-06 6.66903e-06 6.11861e-06 5.59301e-06 5.09356e-06 4.62126e-06 4.17679e-06 3.76055e-06 3.37262e-06 3.01283e-06 2.68077e-06 2.37577e-06 2.09699e-06 1.84341e-06 1.61386e-06 1.40708e-06 1.22171e-06 1.05634e-06 9.09522e-07 7.79807e-07 6.65757e-07 5.65966e-07 4.79073e-07 4.03778e-07 3.38847e-07 2.83125e-07 2.35538e-07 1.95093e-07 1.60885e-07 1.32092e-07 1.07974e-07 8.78689e-08 7.11907e-08 5.74217e-08 4.61094e-08 3.68603e-08 2.93345e-08 2.32405e-08 1.83297e-08 1.43914e-08 1.12482e-08 8.75165e-09 6.7782e-09 5.22568e-09 4.01006e-09 3.06266e-09 2.32759e-09 1.75967e-09 1.32251e-09 9.86921e-10 7.29572e-10 5.31811e-10 3.78695e-10 2.58154e-10 1.60275e-10 7.6686e-11 0 
0 1.05221e-10 2.19908e-10 3.5419e-10 5.19548e-10 7.29572e-10 1.00081e-09 1.35374e-09 1.81393e-09 2.41337e-09 3.19204e-09 4.1998e-09 5.4986e-09 7.16496e-09 9.293e-09 1.19978e-08 1.54194e-08 1.9727e-08 2.51238e-08 3.18529e-08 4.02028e-08 5.05139e-08 6.31854e-08 7.86828e-08 9.75446e-08 1.20391e-07 1.47929e-07 1.80962e-07 2.20397e-07 2.67246e-07 3.22634e-07 3.87801e-07 4.64104e-07 5.53013e-07 6.56111e-07 7.75083e-07 9.1171e-07 1.06785e-06 1.24544e-06 1.44643e-06 1.67281e-06 1.92657e-06 2.20962e-06 2.52382e-06 2.87092e-06 3.2525e-06 3.66995e-06 4.12445e-06 4.61686e-06 5.14779e-06 5.71746e-06 6.32575e-06 6.97211e-06 7.65562e-06 8.3749e-06 9.12815e-06 9.91317e-06 1.07273e-05 1.15676e-05 1.24306e-05 1.33127e-05 1.42099e-05 1.51181e-05 1.6033e-05 1.695e-05 1.78649e-05 1.8773e-05 1.96703e-05 2.05524e-05 2.14154e-05 2.22557e-05 2.30698e-05 2.38548e-05 2.46081e-05 2.53274e-05 2.60109e-05 2.66572e-05 2.72655e-05 2.78352e-05 2.83661e-05 2.88585e-05 2.9313e-05 2.97305e-05 3.01121e-05 3.04592e-05 3.07734e-05 3.10564e-05 3.13102e-05 3.15366e-05 3.17375e-05 3.19151e-05 3.20713e-05 3.22079e-05 3.23269e-05 3.243e-05 3.25189e-05 3.25952e-05 3.26603e-05 3.27157e-05 3.27626e-05 3.2802e-05 3.28351e-05 3.28626e-05 3.28854e-05 3.29043e-05 3.29198e-05 3.29325e-05 3.29428e-05 3.29511e-05 3.29579e-05 3.29633e-05 3.29676e-05 3.2971e-05 3.29737e-05 3.29758e-05 3.29775e-05 3.29788e-05 3.29798e-05 3.29806e-05 3.29811e-05 3.29816e-05 3.29819e-05 3.29822e-05 3.29824e-05 3.29825e-05 3.29826e-05 3.29827e-05 3.29827e-05 3.29827e-05 3.29827e-05 3.29826e-05 3.29825e-05 3.29824e-05 3.29822e-05 3.29819e-05 3.29816e-05 3.29811e-05 3.29806e-05 3.29798e-05 3.29788e-05 3.29775e-05 3.29758e-05 3.29737e-05 3.2971e-05 3.29676e-05 3.29633e-05 3.29579e-05 3.29511e-05 3.29428e-05 3.29325e-05 3.29198e-05 3.29043e-05 3.28854e-05 3.28626e-05 3.28351e-05 3.2802e-05 3.27626e-05 3.27157e-05 3.26603e-05 3.25952e-05 3.25189e-05 3.243e-05 3.23269e-05 3.22079e-05 3.20713e-05 3.19151e-05 3.17375e-05 3.15366e-05 3.13102e-05 3.10564e-05 3.07734e-05 3.04592e-05 3.01121e-05 2.97305e-05 2.9313e-05 2.88585e-05 2.83661e-05 2.78352e-05 2.72655e-05 2.66572e-05 2.60109e-05 2.53274e-05 2.46081e-05 2.38548e-05 2.30698e-05 2.22557e-05 2.14154e-05 2.05524e-05 1.96703e-05 1.8773e-05 1.78649e-05 1.695e-05 1.6033e-05 1.51181e-05 1.42099e-05 1.33127e-05 1.24306e-05 1.15676e-05 1.07273e-05 9.91317e-06 9.12815e-06 8.3749e-06 7.65562e-06 6.97211e-06 6.32575e-06 5.71746e-06 5.14779e-06 4.61686e-06 4.12445e-06 3.66995e-06 3.2525e-06 2.87092e-06 2.52382e-06 2.20962e-06 1.92657e-06 1.67281e-06 1.44643e-06 1.24544e-06 1.06785e-06 9.1171e-07 7.75083e-07 6.56111e-07 5.53013e-07 4.64104e-07 3.87801e-07 3.22634e-07 2.67246e-07 2.20397e-07 1.80962e-07 1.47929e-07 1.20391e-07 9.75446e-08 7.86828e-08 6.31854e-08 5.05139e-08 4.02028e-08 3.18529e-08 2.51238e-08 1.9727e-08 1.54194e-08 1.19978e-08 9.293e-09 7.16496e-09 5.4986e-09 4.1998e-09 3.19204e-09 2.41337e-09 1.81393e-09 1.35374e-09 1.00081e-09 7.29572e-10 5.19548e-10 3.5419e-10 2.19908e-10 1.05221e-10 0 
0 1.42362e-10 2.97525e-10 4.79183e-10 7.02858e-10 9.86921e-10 1.35374e-09 1.831e-09 2.45326e-09 3.26372e-09 4.31642e-09 5.67875e-09 7.43437e-09 9.68666e-09 1.25628e-08 1.62182e-08 2.08419e-08 2.66625e-08 3.39545e-08 4.30461e-08 5.43267e-08 6.8256e-08 8.53731e-08 1.06306e-07 1.31782e-07 1.62638e-07 1.99829e-07 2.44439e-07 2.97691e-07 3.60952e-07 4.35739e-07 5.23727e-07 6.26745e-07 7.46778e-07 8.85959e-07 1.04657e-06 1.231e-06 1.44177e-06 1.68147e-06 1.95275e-06 2.2583e-06 2.60078e-06 2.98279e-06 3.40683e-06 3.87525e-06 4.39018e-06 4.95352e-06 5.56682e-06 6.23129e-06 6.9477e-06 7.71637e-06 8.53714e-06 9.40927e-06 1.03315e-05 1.1302e-05 1.23183e-05 1.33774e-05 1.44759e-05 1.56095e-05 1.67739e-05 1.7964e-05 1.91745e-05 2.03998e-05 2.1634e-05 2.28713e-05 2.41055e-05 2.53308e-05 2.65413e-05 2.77314e-05 2.88958e-05 3.00295e-05 3.11279e-05 3.2187e-05 3.32034e-05 3.41738e-05 3.50961e-05 3.59682e-05 3.6789e-05 3.75576e-05 3.8274e-05 3.89385e-05 3.95518e-05 4.01151e-05 4.06301e-05 4.10985e-05 4.15225e-05 4.19046e-05 4.2247e-05 4.25526e-05 4.28239e-05 4.30636e-05 4.32743e-05 4.34588e-05 4.36194e-05 4.37586e-05 4.38786e-05 4.39816e-05 4.40696e-05 4.41444e-05 4.42076e-05 4.42609e-05 4.43055e-05 4.43427e-05 4.43736e-05 4.4399e-05 4.442e-05 4.44371e-05 4.4451e-05 4.44623e-05 4.44714e-05 4.44787e-05 4.44845e-05 4.44891e-05 4.44928e-05 4.44956e-05 4.44979e-05 4.44996e-05 4.4501e-05 4.45021e-05 4.45029e-05 4.45035e-05 4.45039e-05 4.45043e-05 4.45045e-05 4.45047e-05 4.45048e-05 4.45049e-05 4.4505e-05 4.4505e-05 4.45049e-05 4.45048e-05 4.45047e-05 4.45045e-05 4.45043e-05 4.45039e-05 4.45035e-05 4.45029e-05 4.45021e-05 4.4501e-05 4.44996e-05 4.44979e-05 4.44956e-05 4.44928e-05 4.44891e-05 4.44845e-05 4.44787e-05 4.44714e-05 4.44623e-05 4.4451e-05 4.44371e-05 4.442e-05 4.4399e-05 4.43736e-05 4.43427e-05 4.43055e-05 4.42609e-05 4.42076e-05 4.41444e-05 4.40696e-05 4.39816e-05 4.38786e-05 4.37586e-05 4.36194e-05 4.34588e-05 4.32743e-05 4.30636e-05 4.28239e-05 4.25526e-05 4.2247e-05 4.19046e-05 4.15225e-05 4.10985e-05 4.06301e-05 4.01151e-05 3.95518e-05 3.89385e-05 3.8274e-05 3.75576e-05 3.6789e-05 3.59682e-05 3.50961e-05 3.41738e-05 3.32034e-05 3.2187e-05 3.11279e-05 3.00295e-05 2.88958e-05 2.77314e-05 2.65413e-05 2.53308e-05 2.41055e-05 2.28713e-05 2.1634e-05 2.03998e-05 1.91745e-05 1.7964e-05 1.67739e-05 1.56095e-05 1.44759e-05 1.33774e-05 1.23183e-05 1.1302e-05 1.03315e-05 9.40927e-06 8.53714e-06 7.71637e-06 6.9477e-06 6.23129e-06 5.56682e-06 4.95352e-06 4.39018e-06 3.87525e-06 3.40683e-06 2.98279e-06 2.60078e-06 2.2583e-06 1.95275e-06 1.68147e-06 1.44177e-06 1.231e-06 1.04657e-06 8.85959e-07 7.46778e-07 6.26745e-07 5.23727e-07 4.35739e-07 3.60952e-07 2.97691e-07 2.44439e-07 1.99829e-07 1.62638e-07 1.31782e-07 1.06306e-07 8.53731e-08 6.8256e-08 5.43267e-08 4.30461e-08 3.39545e-08 2.66625e-08 2.08419e-08 1.62182e-08 1.25628e-08 9.68666e-09 7.43437e-09 5.67875e-09 4.31642e-09 3.26372e-09 2.45326e-09 1.831e-09 1.35374e-09 9.86921e-10 7.02858e-10 4.79183e-10 2.97525e-10 1.42362e-10 0 
0 1.90806e-10 3.98758e-10 6.42197e-10 9.41913e-10 1.32251e-09 1.81393e-09 2.45326e-09 3.28672e-09 4.37219e-09 5.78199e-09 7.60629e-09 9.95706e-09 1.29727e-08 1.68232e-08 2.17167e-08 2.79061e-08 3.5697e-08 4.54569e-08 5.76245e-08 7.27207e-08 9.13605e-08 1.14265e-07 1.42273e-07 1.76358e-07 2.17638e-07 2.67391e-07 3.27067e-07 3.98298e-07 4.82913e-07 5.82941e-07 7.00618e-07 8.38391e-07 9.98911e-07 1.18503e-06 1.39979e-06 1.6464e-06 1.92821e-06 2.2487e-06 2.61141e-06 3.01991e-06 3.47776e-06 3.98844e-06 4.5553e-06 5.18146e-06 5.86979e-06 6.62279e-06 7.44256e-06 8.33069e-06 9.28824e-06 1.03156e-05 1.14126e-05 1.25782e-05 1.38108e-05 1.51078e-05 1.6466e-05 1.78815e-05 1.93495e-05 2.08645e-05 2.24206e-05 2.4011e-05 2.56287e-05 2.72661e-05 2.89155e-05 3.0569e-05 3.22184e-05 3.38558e-05 3.54735e-05 3.70639e-05 3.862e-05 4.0135e-05 4.1603e-05 4.30185e-05 4.43767e-05 4.56737e-05 4.69063e-05 4.80719e-05 4.91689e-05 5.01963e-05 5.11538e-05 5.2042e-05 5.28617e-05 5.36147e-05 5.43031e-05 5.49292e-05 5.54961e-05 5.60068e-05 5.64646e-05 5.68731e-05 5.72358e-05 5.75563e-05 5.78381e-05 5.80847e-05 5.82995e-05 5.84856e-05 5.86461e-05 5.87839e-05 5.89016e-05 5.90016e-05 5.90862e-05 5.91574e-05 5.92171e-05 5.92669e-05 5.93082e-05 5.93422e-05 5.93702e-05 5.93932e-05 5.94118e-05 5.94269e-05 5.94391e-05 5.94488e-05 5.94566e-05 5.94628e-05 5.94677e-05 5.94715e-05 5.94746e-05 5.94769e-05 5.94787e-05 5.94801e-05 5.94812e-05 5.9482e-05 5.94826e-05 5.94831e-05 5.94834e-05 5.94837e-05 5.94839e-05 5.9484e-05 5.9484e-05 5.9484e-05 5.9484e-05 5.94839e-05 5.94837e-05 5.94834e-05 5.94831e-05 5.94826e-05 5.9482e-05 5.94812e-05 5.94801e-05 5.94787e-05 5.94769e-05 5.94746e-05 5.94715e-05 5.94677e-05 5.94628e-05 5.94566e-05 5.94488e-05 5.94391e-05 5.94269e-05 5.94118e-05 5.93932e-05 5.93702e-05 5.93422e-05 5.93082e-05 5.92669e-05 5.92171e-05 5.91574e-05 5.90862e-05 5.90016e-05 5.89016e-05 5.87839e-05 5.86461e-05 5.84856e-05 5.82995e-05 5.80847e-05 5.78381e-05 5.75563e-05 5.72358e-05 5.68731e-05 5.64646e-05 5.60068e-05 5.54961e-05 5.49292e-05 5.43031e-05 5.36147e-05 5.28617e-05 5.2042e-05 5.11538e-05 5.01963e-05 4.91689e-05 4.80719e-05 4.69063e-05 4.56737e-05 4.43767e-05 4.30185e-05 4.1603e-05 4.0135e-05 3.862e-05 3.70639e-05 3.54735e-05 3.38558e-05 3.22184e-05 3.0569e-05 2.89155e-05 2.72661e-05 2.56287e-05 2.4011e-05 2.24206e-05 2.08645e-05 1.93495e-05 1.78815e-05 1.6466e-05 1.51078e-05 1.38108e-05 1.25782e-05 1.14126e-05 1.03156e-05 9.28824e-06 8.33069e-06 7.44256e-06 6.62279e-06 5.86979e-06 5.18146e-06 4.5553e-06 3.98844e-06 3.47776e-06 3.01991e-06 2.61141e-06 2.2487e-06 1.92821e-06 1.6464e-06 1.39979e-06 1.18503e-06 9.98911e-07 8.38391e-07 7.00618e-07 5.82941e-07 4.82913e-07 3.98298e-07 3.27067e-07 2.67391e-07 2.17638e-07 1.76358e-07 1.42273e-07 1.14265e-07 9.13605e-08 7.27207e-08 5.76245e-08 4.54569e-08 3.5697e-08 2.79061e-08 2.17167e-08 1.68232e-08 1.29727e-08 9.95706e-09 7.60629e-09 5.78199e-09 4.37219e-09 3.28672e-09 2.45326e-09 1.81393e-09 1.32251e-09 9.41913e-10 6.42197e-10 3.98758e-10 1.90806e-10 0 
0 2.53926e-10 5.30656e-10 8.54581e-10 1.25335e-09 1.75967e-09 2.41337e-09 3.26372e-09 4.37219e-09 5.81569e-09 7.69035e-09 1.0116e-08 1.32414e-08 1.72504e-08 2.2369e-08 2.88735e-08 3.71e-08 4.74544e-08 6.04246e-08 7.65935e-08 9.6653e-08 1.21419e-07 1.5185e-07 1.89059e-07 2.34339e-07 2.89174e-07 3.5526e-07 4.34521e-07 5.29127e-07 6.41501e-07 7.74339e-07 9.30607e-07 1.11355e-06 1.32669e-06 1.57381e-06 1.85895e-06 2.18636e-06 2.56049e-06 2.98595e-06 3.46743e-06 4.00969e-06 4.61744e-06 5.29529e-06 6.04768e-06 6.87877e-06 7.79233e-06 8.79171e-06 9.87968e-06 1.10583e-05 1.23291e-05 1.36925e-05 1.51482e-05 1.6695e-05 1.83306e-05 2.00517e-05 2.1854e-05 2.37323e-05 2.56802e-05 2.76905e-05 2.97552e-05 3.18656e-05 3.4012e-05 3.61847e-05 3.83733e-05 4.05672e-05 4.27558e-05 4.49285e-05 4.70749e-05 4.91853e-05 5.125e-05 5.32603e-05 5.52082e-05 5.70864e-05 5.88888e-05 6.06099e-05 6.22455e-05 6.37922e-05 6.5248e-05 6.66114e-05 6.78822e-05 6.90608e-05 7.01488e-05 7.11482e-05 7.20617e-05 7.28928e-05 7.36452e-05 7.4323e-05 7.49308e-05 7.54731e-05 7.59545e-05 7.638e-05 7.67541e-05 7.70815e-05 7.73667e-05 7.76138e-05 7.78269e-05 7.80099e-05 7.81662e-05 7.8299e-05 7.84114e-05 7.8506e-05 7.85852e-05 7.86513e-05 7.87062e-05 7.87514e-05 7.87886e-05 7.88191e-05 7.88438e-05 7.88639e-05 7.88801e-05 7.8893e-05 7.89034e-05 7.89116e-05 7.89181e-05 7.89232e-05 7.89272e-05 7.89304e-05 7.89328e-05 7.89346e-05 7.89361e-05 7.89372e-05 7.8938e-05 7.89386e-05 7.89391e-05 7.89394e-05 7.89396e-05 7.89397e-05 7.89398e-05 7.89398e-05 7.89397e-05 7.89396e-05 7.89394e-05 7.89391e-05 7.89386e-05 7.8938e-05 7.89372e-05 7.89361e-05 7.89346e-05 7.89328e-05 7.89304e-05 7.89272e-05 7.89232e-05 7.89181e-05 7.89116e-05 7.89034e-05 7.8893e-05 7.88801e-05 7.88639e-05 7.88438e-05 7.88191e-05 7.87886e-05 7.87514e-05 7.87062e-05 7.86513e-05 7.85852e-05 7.8506e-05 7.84114e-05 7.8299e-05 7.81662e-05 7.80099e-05 7.78269e-05 7.76138e-05 7.73667e-05 7.70815e-05 7.67541e-05 7.638e-05 7.59545e-05 7.54731e-05 7.49308e-05 7.4323e-05 7.36452e-05 7.28928e-05 7.20617e-05 7.11482e-05 7.01488e-05 6.90608e-05 6.78822e-05 6.66114e-05 6.5248e-05 6.37922e-05 6.22455e-05 6.06099e-05 5.88888e-05 5.70864e-05 5.52082e-05 5.32603e-05 5.125e-05 4.91853e-05 4.70749e-05 4.49285e-05 4.27558e-05 4.05672e-05 3.83733e-05 3.61847e-05 3.4012e-05 3.18656e-05 2.97552e-05 2.76905e-05 2.56802e-05 2.37323e-05 2.1854e-05 2.00517e-05 1.83306e-05 1.6695e-05 1.51482e-05 1.36925e-05 1.23291e-05 1.10583e-05 9.87968e-06 8.79171e-06 7.79233e-06 6.87877e-06 6.04768e-06 5.29529e-06 4.61744e-06 4.00969e-06 3.46743e-06 2.98595e-06 2.56049e-06 2.18636e-06 1.85895e-06 1.57381e-06 1.32669e-06 1.11355e-06 9.30607e-07 7.74339e-07 6.41501e-07 5.29127e-07 4.34521e-07 3.5526e-07 2.89174e-07 2.34339e-07 1.89059e-07 1.5185e-07 1.21419e-07 9.6653e-08 7.65935e-08 6.04246e-08 4.74544e-08 3.71e-08 2.88735e-08 2.2369e-08 1.72504e-08 1.32414e-08 1.0116e-08 7.69035e-09 5.81569e-09 4.37219e-09 3.26372e-09 2.41337e-09 1.75967e-09 1.25335e-09 8.54581e-10 5.30656e-10 2.53926e-10 0 