<?xml version="1.0"?>
<VTKFile type="ImageData" version="0.1" byte_order="LittleEndian">
  <ImageData WholeExtent="0 255 0 255 0 0" Origin="0 0 0" Spacing="1 1 1">
  <Piece Extent="0 255 0 255 0 0">
    <PointData>
      <DataArray type="Float32" Name="scalar_data" format="ascii" >0 0 0 0 0 0 0 0 0 0 0 0 0 0 0 0 0 0 0 0 0 0 0 0 0 0 0 0 0 0 0 0 0 0 0 0 0 0 0 0 0 0 0 0 0 0 0 0 0 0 0 0 0 0 0 0 0 0 0 0 0 0 0 0 0 0 0 0 0 0 0 0 0 0 0 0 0 0 0 0 0 0 0 0 0 0 0 0 0 0 0 0 0 0 0 0 0 0 0 0 0 0 0 0 0 0 0 0 0 0 0 0 0 0 0 0 0 0 0 0 0 0 0 0 0 0 0 0 0 0 0 0 0 0 0 0 0 0 0 0 0 0 0 0 0 0 0 0 0 0 0 0 0 0 0 0 0 0 0 0 0 0 0 0 0 0 0 0 0 0 0 0 0 0 0 0 0 0 0 0 0 0 0 0 0 0 0 0 0 0 0 0 0 0 0 0 0 0 0 0 0 0 0 0 0 0 0 0 0 0 0 0 0 0 0 0 0 0 0 0 0 0 0 0 0 0 0 0 0 0 0 0 0 0 0 0 0 0 0 0 0 0 0 0 0 0 0 0 0 0 0 0 0 0 0 0 
0 9.19279e-20 2.19223e-19 4.29371e-19 7.97705e-19 1.45128e-18 2.60739e-18 4.63673e-18 8.16674e-18 1.42493e-17 2.46305e-17 4.21782e-17 7.15554e-17 1.20265e-16 2.00251e-16 3.30336e-16 5.39859e-16 8.74079e-16 1.40207e-15 2.22811e-15 3.50798e-15 5.47183e-15 8.45603e-15 1.29468e-14 1.96393e-14 2.95162e-14 4.39511e-14 6.48427e-14 9.47851e-14 1.37282e-13 1.9701e-13 2.80138e-13 3.94706e-13 5.51065e-13 7.62377e-13 1.04517e-12 1.41991e-12 1.91166e-12 2.55063e-12 3.37277e-12 4.42022e-12 5.74168e-12 7.39245e-12 9.4344e-12 1.19354e-11 1.49687e-11 1.86113e-11 2.29427e-11 2.80425e-11 3.39881e-11 4.08514e-11 4.86963e-11 5.75748e-11 6.75242e-11 7.8564e-11 9.0693e-11 1.03887e-10 1.18099e-10 1.33257e-10 1.49263e-10 1.65998e-10 1.83325e-10 2.01085e-10 2.19112e-10 2.37228e-10 2.55255e-10 2.73015e-10 2.90342e-10 3.07077e-10 3.23083e-10 3.3824e-10 3.52452e-10 3.65647e-10 3.77776e-10 3.88816e-10 3.98765e-10 4.07644e-10 4.15489e-10 4.22352e-10 4.28297e-10 4.33397e-10 4.37729e-10 4.41371e-10 4.44404e-10 4.46905e-10 4.48947e-10 4.50598e-10 4.5192e-10 4.52967e-10 4.53789e-10 4.54428e-10 4.5492e-10 4.55295e-10 4.55578e-10 4.55789e-10 4.55945e-10 4.5606e-10 4.56143e-10 4.56203e-10 4.56245e-10 4.56275e-10 4.56296e-10 4.5631e-10 4.5632e-10 4.56327e-10 4.56332e-10 4.56334e-10 4.56336e-10 4.56338e-10 4.56339e-10 4.56339e-10 4.56339e-10 4.5634e-10 4.5634e-10 4.5634e-10 4.5634e-10 4.5634e-10 4.5634e-10 4.5634e-10 4.5634e-10 4.5634e-10 4.5634e-10 4.5634e-10 4.5634e-10 4.5634e-10 4.5634e-10 4.5634e-10 4.5634e-10 4.5634e-10 4.5634e-10 4.5634e-10 4.5634e-10 4.5634e-10 4.5634e-10 4.5634e-10 4.5634e-10 4.5634e-10 4.5634e-10 4.5634e-10 4.5634e-10 4.5634e-10 4.5634e-10 4.5634e-10 4.5634e-10 4.56339e-10 4.56339e-10 4.56339e-10 4.56338e-10 4.56336e-10 4.56334e-10 4.56332e-10 4.56327e-10 4.5632e-10 4.5631e-10 4.56296e-10 4.56275e-10 4.56245e-10 4.56203e-10 4.56143e-10 4.5606e-10 4.55945e-10 4.55789e-10 4.55578e-10 4.55295e-10 4.5492e-10 4.54428e-10 4.53789e-10 4.52967e-10 4.5192e-10 4.50598e-10 4.48947e-10 4.46905e-10 4.44404e-10 4.41371e-10 4.37729e-10 4.33397e-10 4.28297e-10 4.22352e-10 4.15489e-10 4.07644e-10 3.98765e-10 3.88816e-10 3.77776e-10 3.65647e-10 3.52452e-10 3.3824e-10 3.23083e-10 3.07077e-10 2.90342e-10 2.73015e-10 2.55255e-10 2.37228e-10 2.19112e-10 2.01085e-10 1.83325e-10 1.65998e-10 1.49263e-10 1.33257e-10 1.18099e-10 1.03887e-10 9.0693e-11 7.8564e-11 6.75242e-11 5.75748e-11 4.86963e-11 4.08514e-11 3.39881e-11 2.80425e-11 2.29427e-11 1.86113e-11 1.49687e-11 1.19354e-11 9.4344e-12 7.39245e-12 5.74168e-12 4.42022e-12 3.37277e-12 2.55063e-12 1.91166e-12 1.41991e-12 1.04517e-12 7.62377e-13 5.51065e-13 3.94706e-13 2.80138e-13 1.9701e-13 1.37282e-13 9.47851e-14 6.48427e-14 4.39511e-14 2.95162e-14 1.96393e-14 1.29468e-14 8.45603e-15 5.47183e-15 3.50798e-15 2.22811e-15 1.40207e-15 8.74079e-16 5.39859e-16 3.30336e-16 2.00251e-16 1.20265e-16 7.15554e-17 4.21782e-17 2.46305e-17 1.42493e-17 8.16674e-18 4.63673e-18 2.60739e-18 1.45128e-18 7.97705e-19 4.29371e-19 2.19223e-19 9.19279e-20 0 
0 2.19223e-19 5.22657e-19 1.02331e-18 1.90039e-18 3.45597e-18 6.20643e-18 1.10323e-17 1.94234e-17 3.38763e-17 5.85331e-17 1.00195e-16 1.69917e-16 2.85477e-16 4.75171e-16 7.83565e-16 1.28011e-15 2.0719e-15 3.32232e-15 5.27797e-15 8.30708e-15 1.29535e-14 2.0012e-14 3.06307e-14 4.64509e-14 6.97919e-14 1.03895e-13 1.53239e-13 2.23942e-13 3.24263e-13 4.65227e-13 6.61371e-13 9.31636e-13 1.3004e-12 1.79866e-12 2.46532e-12 3.34858e-12 4.50739e-12 6.01283e-12 7.94949e-12 1.04165e-11 1.35283e-11 1.74149e-11 2.22218e-11 2.81086e-11 3.52471e-11 4.38186e-11 5.40095e-11 6.6007e-11 7.99926e-11 9.61354e-11 1.14585e-10 1.35464e-10 1.58859e-10 1.84816e-10 2.13332e-10 2.44351e-10 2.77761e-10 3.13391e-10 3.51015e-10 3.90352e-10 4.31077e-10 4.72822e-10 5.15192e-10 5.57772e-10 6.00142e-10 6.41888e-10 6.82612e-10 7.2195e-10 7.59574e-10 7.95204e-10 8.28613e-10 8.59632e-10 8.88149e-10 9.14106e-10 9.37501e-10 9.5838e-10 9.76829e-10 9.92972e-10 1.00696e-09 1.01896e-09 1.02915e-09 1.03772e-09 1.04486e-09 1.05074e-09 1.05555e-09 1.05944e-09 1.06255e-09 1.06502e-09 1.06695e-09 1.06846e-09 1.06962e-09 1.0705e-09 1.07117e-09 1.07166e-09 1.07203e-09 1.0723e-09 1.0725e-09 1.07264e-09 1.07274e-09 1.07281e-09 1.07286e-09 1.07289e-09 1.07292e-09 1.07293e-09 1.07294e-09 1.07295e-09 1.07296e-09 1.07296e-09 1.07296e-09 1.07296e-09 1.07296e-09 1.07296e-09 1.07296e-09 1.07296e-09 1.07296e-09 1.07296e-09 1.07296e-09 1.07296e-09 1.07296e-09 1.07296e-09 1.07296e-09 1.07296e-09 1.07296e-09 1.07296e-09 1.07296e-09 1.07296e-09 1.07296e-09 1.07296e-09 1.07296e-09 1.07296e-09 1.07296e-09 1.07296e-09 1.07296e-09 1.07296e-09 1.07296e-09 1.07296e-09 1.07296e-09 1.07296e-09 1.07296e-09 1.07296e-09 1.07296e-09 1.07296e-09 1.07296e-09 1.07296e-09 1.07296e-09 1.07296e-09 1.07296e-09 1.07296e-09 1.07295e-09 1.07294e-09 1.07293e-09 1.07292e-09 1.07289e-09 1.07286e-09 1.07281e-09 1.07274e-09 1.07264e-09 1.0725e-09 1.0723e-09 1.07203e-09 1.07166e-09 1.07117e-09 1.0705e-09 1.06962e-09 1.06846e-09 1.06695e-09 1.06502e-09 1.06255e-09 1.05944e-09 1.05555e-09 1.05074e-09 1.04486e-09 1.03772e-09 1.02915e-09 1.01896e-09 1.00696e-09 9.92972e-10 9.76829e-10 9.5838e-10 9.37501e-10 9.14106e-10 8.88149e-10 8.59632e-10 8.28613e-10 7.95204e-10 7.59574e-10 7.2195e-10 6.82612e-10 6.41888e-10 6.00142e-10 5.57772e-10 5.15192e-10 4.72822e-10 4.31077e-10 3.90352e-10 3.51015e-10 3.13391e-10 2.77761e-10 2.44351e-10 2.13332e-10 1.84816e-10 1.58859e-10 1.35464e-10 1.14585e-10 9.61354e-11 7.99926e-11 6.6007e-11 5.40095e-11 4.38186e-11 3.52471e-11 2.81086e-11 2.22218e-11 1.74149e-11 1.35283e-11 1.04165e-11 7.94949e-12 6.01283e-12 4.50739e-12 3.34858e-12 2.46532e-12 1.79866e-12 1.3004e-12 9.31636e-13 6.61371e-13 4.65227e-13 3.24263e-13 2.23942e-13 1.53239e-13 1.03895e-13 6.97919e-14 4.64509e-14 3.06307e-14 2.0012e-14 1.29535e-14 8.30708e-15 5.27797e-15 3.32232e-15 2.0719e-15 1.28011e-15 7.83565e-16 4.75171e-16 2.85477e-16 1.69917e-16 1.00195e-16 5.85331e-17 3.38763e-17 1.94234e-17 1.10323e-17 6.20643e-18 3.45597e-18 1.90039e-18 1.02331e-18 5.22657e-19 2.19223e-19 0 
0 4.29371e-19 1.02331e-18 2.00256e-18 3.71686e-18 6.75533e-18 1.21244e-17 2.15393e-17 3.79e-17 6.6064e-17 1.14085e-16 1.95181e-16 3.30823e-16 5.55522e-16 9.24181e-16 1.52322e-15 2.48726e-15 4.02378e-15 6.44914e-15 1.02406e-14 1.61106e-14 2.51108e-14 3.87771e-14 5.93281e-14 8.99331e-14 1.35069e-13 2.00992e-13 2.96339e-13 4.32906e-13 6.26615e-13 8.98705e-13 1.27717e-12 1.79849e-12 2.50959e-12 3.47009e-12 4.75483e-12 6.4565e-12 8.68841e-12 1.15872e-11 1.53153e-11 2.00632e-11 2.60506e-11 3.35272e-11 4.27721e-11 5.40915e-11 6.78151e-11 8.42904e-11 1.03875e-10 1.26928e-10 1.53796e-10 1.84805e-10 2.20239e-10 2.60334e-10 3.05256e-10 3.55093e-10 4.09837e-10 4.69381e-10 5.3351e-10 6.01895e-10 6.74104e-10 7.49598e-10 8.27752e-10 9.07862e-10 9.8917e-10 1.07088e-09 1.15219e-09 1.2323e-09 1.31045e-09 1.38595e-09 1.45815e-09 1.52654e-09 1.59067e-09 1.65021e-09 1.70496e-09 1.75479e-09 1.79972e-09 1.83981e-09 1.87525e-09 1.90625e-09 1.93312e-09 1.95617e-09 1.97576e-09 1.99223e-09 2.00596e-09 2.01728e-09 2.02652e-09 2.034e-09 2.03999e-09 2.04473e-09 2.04846e-09 2.05136e-09 2.05359e-09 2.0553e-09 2.05658e-09 2.05754e-09 2.05825e-09 2.05877e-09 2.05915e-09 2.05942e-09 2.05962e-09 2.05975e-09 2.05985e-09 2.05992e-09 2.05996e-09 2.05999e-09 2.06001e-09 2.06003e-09 2.06003e-09 2.06004e-09 2.06004e-09 2.06005e-09 2.06005e-09 2.06005e-09 2.06005e-09 2.06005e-09 2.06005e-09 2.06005e-09 2.06005e-09 2.06005e-09 2.06005e-09 2.06005e-09 2.06005e-09 2.06005e-09 2.06005e-09 2.06005e-09 2.06005e-09 2.06005e-09 2.06005e-09 2.06005e-09 2.06005e-09 2.06005e-09 2.06005e-09 2.06005e-09 2.06005e-09 2.06005e-09 2.06005e-09 2.06005e-09 2.06005e-09 2.06005e-09 2.06005e-09 2.06005e-09 2.06005e-09 2.06005e-09 2.06005e-09 2.06005e-09 2.06005e-09 2.06004e-09 2.06004e-09 2.06003e-09 2.06003e-09 2.06001e-09 2.05999e-09 2.05996e-09 2.05992e-09 2.05985e-09 2.05975e-09 2.05962e-09 2.05942e-09 2.05915e-09 2.05877e-09 2.05825e-09 2.05754e-09 2.05658e-09 2.0553e-09 2.05359e-09 2.05136e-09 2.04846e-09 2.04473e-09 2.03999e-09 2.034e-09 2.02652e-09 2.01728e-09 2.00596e-09 1.99223e-09 1.97576e-09 1.95617e-09 1.93312e-09 1.90625e-09 1.87525e-09 1.83981e-09 1.79972e-09 1.75479e-09 1.70496e-09 1.65021e-09 1.59067e-09 1.52654e-09 1.45815e-09 1.38595e-09 1.31045e-09 1.2323e-09 1.15219e-09 1.07088e-09 9.8917e-10 9.07862e-10 8.27752e-10 7.49598e-10 6.74104e-10 6.01895e-10 5.3351e-10 4.69381e-10 4.09837e-10 3.55093e-10 3.05256e-10 2.60334e-10 2.20239e-10 1.84805e-10 1.53796e-10 1.26928e-10 1.03875e-10 8.42904e-11 6.78151e-11 5.40915e-11 4.27721e-11 3.35272e-11 2.60506e-11 2.00632e-11 1.53153e-11 1.15872e-11 8.68841e-12 6.4565e-12 4.75483e-12 3.47009e-12 2.50959e-12 1.79849e-12 1.27717e-12 8.98705e-13 6.26615e-13 4.32906e-13 2.96339e-13 2.00992e-13 1.35069e-13 8.99331e-14 5.93281e-14 3.87771e-14 2.51108e-14 1.61106e-14 1.02406e-14 6.44914e-15 4.02378e-15 2.48726e-15 1.52322e-15 9.24181e-16 5.55522e-16 3.30823e-16 1.95181e-16 1.14085e-16 6.6064e-17 3.79e-17 2.15393e-17 1.21244e-17 6.75533e-18 3.71686e-18 2.00256e-18 1.02331e-18 4.29371e-19 0 
0 7.97705e-19 1.90039e-18 3.71686e-18 6.89424e-18 1.25218e-17 2.24589e-17 3.9872e-17 7.01117e-17 1.22133e-16 2.10777e-16 3.60381e-16 6.10456e-16 1.02447e-15 1.70334e-15 2.80581e-15 4.57901e-15 7.40362e-15 1.18598e-14 1.88223e-14 2.95961e-14 4.61067e-14 7.11648e-14 1.08828e-13 1.64891e-13 2.47535e-13 3.68183e-13 5.42607e-13 7.92332e-13 1.1464e-12 1.64353e-12 2.33477e-12 3.28654e-12 4.5843e-12 6.33663e-12 8.67969e-12 1.17821e-11 1.58499e-11 2.11316e-11 2.79223e-11 3.6568e-11 4.74678e-11 6.10752e-11 7.78967e-11 9.84879e-11 1.23447e-10 1.53404e-10 1.89008e-10 2.30908e-10 2.79735e-10 3.36076e-10 4.00449e-10 4.73278e-10 5.54865e-10 6.45365e-10 7.44768e-10 8.52875e-10 9.69294e-10 1.09343e-09 1.2245e-09 1.36153e-09 1.50338e-09 1.64878e-09 1.79634e-09 1.94464e-09 2.0922e-09 2.2376e-09 2.37945e-09 2.51648e-09 2.64755e-09 2.77168e-09 2.8881e-09 2.99621e-09 3.09561e-09 3.18611e-09 3.2677e-09 3.34053e-09 3.4049e-09 3.46124e-09 3.51007e-09 3.55197e-09 3.58757e-09 3.61753e-09 3.64249e-09 3.66308e-09 3.6799e-09 3.69351e-09 3.70441e-09 3.71306e-09 3.71985e-09 3.72513e-09 3.7292e-09 3.7323e-09 3.73464e-09 3.73639e-09 3.73769e-09 3.73864e-09 3.73934e-09 3.73983e-09 3.74019e-09 3.74044e-09 3.74061e-09 3.74073e-09 3.74081e-09 3.74087e-09 3.74091e-09 3.74093e-09 3.74095e-09 3.74096e-09 3.74097e-09 3.74097e-09 3.74097e-09 3.74098e-09 3.74098e-09 3.74098e-09 3.74098e-09 3.74098e-09 3.74098e-09 3.74098e-09 3.74098e-09 3.74098e-09 3.74098e-09 3.74098e-09 3.74098e-09 3.74098e-09 3.74098e-09 3.74098e-09 3.74098e-09 3.74098e-09 3.74098e-09 3.74098e-09 3.74098e-09 3.74098e-09 3.74098e-09 3.74098e-09 3.74098e-09 3.74098e-09 3.74098e-09 3.74098e-09 3.74098e-09 3.74098e-09 3.74098e-09 3.74098e-09 3.74098e-09 3.74097e-09 3.74097e-09 3.74097e-09 3.74096e-09 3.74095e-09 3.74093e-09 3.74091e-09 3.74087e-09 3.74081e-09 3.74073e-09 3.74061e-09 3.74044e-09 3.74019e-09 3.73983e-09 3.73934e-09 3.73864e-09 3.73769e-09 3.73639e-09 3.73464e-09 3.7323e-09 3.7292e-09 3.72513e-09 3.71985e-09 3.71306e-09 3.70441e-09 3.69351e-09 3.6799e-09 3.66308e-09 3.64249e-09 3.61753e-09 3.58757e-09 3.55197e-09 3.51007e-09 3.46124e-09 3.4049e-09 3.34053e-09 3.2677e-09 3.18611e-09 3.09561e-09 2.99621e-09 2.8881e-09 2.77168e-09 2.64755e-09 2.51648e-09 2.37945e-09 2.2376e-09 2.0922e-09 1.94464e-09 1.79634e-09 1.64878e-09 1.50338e-09 1.36153e-09 1.2245e-09 1.09343e-09 9.69294e-10 8.52875e-10 7.44768e-10 6.45365e-10 5.54865e-10 4.73278e-10 4.00449e-10 3.36076e-10 2.79735e-10 2.30908e-10 1.89008e-10 1.53404e-10 1.23447e-10 9.84879e-11 7.78967e-11 6.10752e-11 4.74678e-11 3.6568e-11 2.79223e-11 2.11316e-11 1.58499e-11 1.17821e-11 8.67969e-12 6.33663e-12 4.5843e-12 3.28654e-12 2.33477e-12 1.64353e-12 1.1464e-12 7.92332e-13 5.42607e-13 3.68183e-13 2.47535e-13 1.64891e-13 1.08828e-13 7.11648e-14 4.61067e-14 2.95961e-14 1.88223e-14 1.18598e-14 7.40362e-15 4.57901e-15 2.80581e-15 1.70334e-15 1.02447e-15 6.10456e-16 3.60381e-16 2.10777e-16 1.22133e-16 7.01117e-17 3.9872e-17 2.24589e-17 1.25218e-17 6.89424e-18 3.71686e-18 1.90039e-18 7.97705e-19 0 
0 1.45128e-18 3.45597e-18 6.75533e-18 1.25218e-17 2.2727e-17 4.07341e-17 7.22662e-17 1.26987e-16 2.2106e-16 3.8125e-16 6.51429e-16 1.10276e-15 1.84951e-15 3.07319e-15 5.05924e-15 8.2517e-15 1.33342e-14 2.13478e-14 3.38618e-14 5.32153e-14 8.28585e-14 1.27825e-13 1.95376e-13 2.95879e-13 4.43961e-13 6.60039e-13 9.72286e-13 1.41913e-12 2.05242e-12 2.94121e-12 4.17652e-12 5.87677e-12 8.19421e-12 1.13222e-11 1.55032e-11 2.10373e-11 2.8291e-11 3.77062e-11 4.98077e-11 6.52104e-11 8.46234e-11 1.08852e-10 1.38796e-10 1.7544e-10 2.19848e-10 2.73136e-10 3.36455e-10 4.10958e-10 4.9776e-10 5.97901e-10 7.12302e-10 8.41709e-10 9.86658e-10 1.14742e-09 1.32398e-09 1.51598e-09 1.72272e-09 1.94315e-09 2.17588e-09 2.41917e-09 2.67101e-09 2.92914e-09 3.19112e-09 3.45439e-09 3.71637e-09 3.9745e-09 4.22634e-09 4.46963e-09 4.70235e-09 4.92279e-09 5.12953e-09 5.32153e-09 5.49809e-09 5.65885e-09 5.8038e-09 5.93321e-09 6.04761e-09 6.14775e-09 6.23455e-09 6.30905e-09 6.37237e-09 6.42566e-09 6.47007e-09 6.50671e-09 6.53666e-09 6.56089e-09 6.5803e-09 6.5957e-09 6.6078e-09 6.61722e-09 6.62447e-09 6.63001e-09 6.63419e-09 6.63731e-09 6.63963e-09 6.64133e-09 6.64257e-09 6.64346e-09 6.64409e-09 6.64454e-09 6.64485e-09 6.64507e-09 6.64521e-09 6.64531e-09 6.64538e-09 6.64543e-09 6.64546e-09 6.64547e-09 6.64549e-09 6.6455e-09 6.6455e-09 6.6455e-09 6.64551e-09 6.64551e-09 6.64551e-09 6.64551e-09 6.64551e-09 6.64551e-09 6.64551e-09 6.64551e-09 6.64551e-09 6.64551e-09 6.64551e-09 6.64551e-09 6.64551e-09 6.64551e-09 6.64551e-09 6.64551e-09 6.64551e-09 6.64551e-09 6.64551e-09 6.64551e-09 6.64551e-09 6.64551e-09 6.64551e-09 6.64551e-09 6.64551e-09 6.64551e-09 6.64551e-09 6.64551e-09 6.64551e-09 6.64551e-09 6.6455e-09 6.6455e-09 6.6455e-09 6.64549e-09 6.64547e-09 6.64546e-09 6.64543e-09 6.64538e-09 6.64531e-09 6.64521e-09 6.64507e-09 6.64485e-09 6.64454e-09 6.64409e-09 6.64346e-09 6.64257e-09 6.64133e-09 6.63963e-09 6.63731e-09 6.63419e-09 6.63001e-09 6.62447e-09 6.61722e-09 6.6078e-09 6.5957e-09 6.5803e-09 6.56089e-09 6.53666e-09 6.50671e-09 6.47007e-09 6.42566e-09 6.37237e-09 6.30905e-09 6.23455e-09 6.14775e-09 6.04761e-09 5.93321e-09 5.8038e-09 5.65885e-09 5.49809e-09 5.32153e-09 5.12953e-09 4.92279e-09 4.70235e-09 4.46963e-09 4.22634e-09 3.9745e-09 3.71637e-09 3.45439e-09 3.19112e-09 2.92914e-09 2.67101e-09 2.41917e-09 2.17588e-09 1.94315e-09 1.72272e-09 1.51598e-09 1.32398e-09 1.14742e-09 9.86658e-10 8.41709e-10 7.12302e-10 5.97901e-10 4.9776e-10 4.10958e-10 3.36455e-10 2.73136e-10 2.19848e-10 1.7544e-10 1.38796e-10 1.08852e-10 8.46234e-11 6.52104e-11 4.98077e-11 3.77062e-11 2.8291e-11 2.10373e-11 1.55032e-11 1.13222e-11 8.19421e-12 5.87677e-12 4.17652e-12 2.94121e-12 2.05242e-12 1.41913e-12 9.72286e-13 6.60039e-13 4.43961e-13 2.95879e-13 1.95376e-13 1.27825e-13 8.28585e-14 5.32153e-14 3.38618e-14 2.13478e-14 1.33342e-14 8.2517e-15 5.05924e-15 3.07319e-15 1.84951e-15 1.10276e-15 6.51429e-16 3.8125e-16 2.2106e-16 1.26987e-16 7.22662e-17 4.07341e-17 2.2727e-17 1.25218e-17 6.75533e-18 3.45597e-18 1.45128e-18 0 
0 2.60739e-18 6.20643e-18 1.21244e-17 2.24589e-17 4.07341e-17 7.2957e-17 1.29342e-16 2.27124e-16 3.9511e-16 6.80972e-16 1.16279e-15 1.96715e-15 3.29714e-15 5.47524e-15 9.00814e-15 1.46837e-14 2.3714e-14 3.79443e-14 6.01536e-14 9.44826e-14 1.47035e-13 2.26711e-13 3.46346e-13 5.24249e-13 7.86247e-13 1.16837e-12 1.7203e-12 2.50981e-12 3.62822e-12 5.19723e-12 7.37703e-12 1.03761e-11 1.44622e-11 1.99754e-11 2.73419e-11 3.70891e-11 4.98607e-11 6.64325e-11 8.7726e-11 1.1482e-10 1.48958e-10 1.91553e-10 2.44182e-10 3.08572e-10 3.86583e-10 4.80175e-10 5.9136e-10 7.22155e-10 8.74515e-10 1.05026e-09 1.25099e-09 1.47802e-09 1.73228e-09 2.01425e-09 2.32388e-09 2.66055e-09 3.02305e-09 3.40952e-09 3.81751e-09 4.244e-09 4.68546e-09 5.13793e-09 5.59713e-09 6.05861e-09 6.51782e-09 6.97028e-09 7.41174e-09 7.83823e-09 8.24623e-09 8.6327e-09 8.99519e-09 9.33187e-09 9.64149e-09 9.92346e-09 1.01777e-08 1.04048e-08 1.06055e-08 1.07812e-08 1.09336e-08 1.10644e-08 1.11756e-08 1.12692e-08 1.13472e-08 1.14116e-08 1.14642e-08 1.15068e-08 1.15409e-08 1.1568e-08 1.15893e-08 1.16059e-08 1.16187e-08 1.16284e-08 1.16358e-08 1.16413e-08 1.16454e-08 1.16484e-08 1.16505e-08 1.16521e-08 1.16532e-08 1.1654e-08 1.16546e-08 1.1655e-08 1.16552e-08 1.16554e-08 1.16555e-08 1.16556e-08 1.16556e-08 1.16557e-08 1.16557e-08 1.16557e-08 1.16557e-08 1.16557e-08 1.16557e-08 1.16557e-08 1.16557e-08 1.16557e-08 1.16557e-08 1.16557e-08 1.16557e-08 1.16557e-08 1.16557e-08 1.16557e-08 1.16557e-08 1.16557e-08 1.16557e-08 1.16557e-08 1.16557e-08 1.16557e-08 1.16557e-08 1.16557e-08 1.16557e-08 1.16557e-08 1.16557e-08 1.16557e-08 1.16557e-08 1.16557e-08 1.16557e-08 1.16557e-08 1.16557e-08 1.16557e-08 1.16557e-08 1.16557e-08 1.16557e-08 1.16557e-08 1.16557e-08 1.16557e-08 1.16557e-08 1.16556e-08 1.16556e-08 1.16555e-08 1.16554e-08 1.16552e-08 1.1655e-08 1.16546e-08 1.1654e-08 1.16532e-08 1.16521e-08 1.16505e-08 1.16484e-08 1.16454e-08 1.16413e-08 1.16358e-08 1.16284e-08 1.16187e-08 1.16059e-08 1.15893e-08 1.1568e-08 1.15409e-08 1.15068e-08 1.14642e-08 1.14116e-08 1.13472e-08 1.12692e-08 1.11756e-08 1.10644e-08 1.09336e-08 1.07812e-08 1.06055e-08 1.04048e-08 1.01777e-08 9.92346e-09 9.64149e-09 9.33187e-09 8.99519e-09 8.6327e-09 8.24623e-09 7.83823e-09 7.41174e-09 6.97028e-09 6.51782e-09 6.05861e-09 5.59713e-09 5.13793e-09 4.68546e-09 4.244e-09 3.81751e-09 3.40952e-09 3.02305e-09 2.66055e-09 2.32388e-09 2.01425e-09 1.73228e-09 1.47802e-09 1.25099e-09 1.05026e-09 8.74515e-10 7.22155e-10 5.9136e-10 4.80175e-10 3.86583e-10 3.08572e-10 2.44182e-10 1.91553e-10 1.48958e-10 1.1482e-10 8.7726e-11 6.64325e-11 4.98607e-11 3.70891e-11 2.73419e-11 1.99754e-11 1.44622e-11 1.03761e-11 7.37703e-12 5.19723e-12 3.62822e-12 2.50981e-12 1.7203e-12 1.16837e-12 7.86247e-13 5.24249e-13 3.46346e-13 2.26711e-13 1.47035e-13 9.44826e-14 6.01536e-14 3.79443e-14 2.3714e-14 1.46837e-14 9.00814e-15 5.47524e-15 3.29714e-15 1.96715e-15 1.16279e-15 6.80972e-16 3.9511e-16 2.27124e-16 1.29342e-16 7.2957e-17 4.07341e-17 2.24589e-17 1.21244e-17 6.20643e-18 2.60739e-18 0 
0 4.63673e-18 1.10323e-17 2.15393e-17 3.9872e-17 7.22662e-17 1.29342e-16 2.29145e-16 4.02101e-16 6.99034e-16 1.20399e-15 2.05453e-15 3.47353e-15 5.81835e-15 9.65605e-15 1.58771e-14 2.58652e-14 4.1748e-14 6.67624e-14 1.05781e-13 1.66059e-13 2.58288e-13 3.98045e-13 6.07786e-13 9.19527e-13 1.37841e-12 2.04737e-12 3.01317e-12 4.39407e-12 6.34941e-12 9.09138e-12 1.28992e-11 1.81361e-11 2.52684e-11 3.48882e-11 4.77371e-11 6.47325e-11 8.6994e-11 1.1587e-10 1.52962e-10 2.00144e-10 2.59576e-10 3.33711e-10 4.25283e-10 5.37293e-10 6.72966e-10 8.35698e-10 1.02898e-09 1.25631e-09 1.52106e-09 1.8264e-09 2.17509e-09 2.56941e-09 3.01096e-09 3.50056e-09 4.03813e-09 4.62259e-09 5.25183e-09 5.92263e-09 6.63073e-09 7.3709e-09 8.13702e-09 8.92221e-09 9.71909e-09 1.05199e-08 1.13168e-08 1.2102e-08 1.28681e-08 1.36083e-08 1.43164e-08 1.49872e-08 1.56164e-08 1.62009e-08 1.67384e-08 1.7228e-08 1.76696e-08 1.80639e-08 1.84126e-08 1.87179e-08 1.89827e-08 1.921e-08 1.94033e-08 1.9566e-08 1.97017e-08 1.98137e-08 1.99053e-08 1.99794e-08 2.00388e-08 2.0086e-08 2.01231e-08 2.0152e-08 2.01743e-08 2.01912e-08 2.02041e-08 2.02137e-08 2.02209e-08 2.02261e-08 2.02299e-08 2.02326e-08 2.02346e-08 2.0236e-08 2.02369e-08 2.02376e-08 2.02381e-08 2.02384e-08 2.02386e-08 2.02387e-08 2.02388e-08 2.02389e-08 2.02389e-08 2.02389e-08 2.0239e-08 2.0239e-08 2.0239e-08 2.0239e-08 2.0239e-08 2.0239e-08 2.0239e-08 2.0239e-08 2.0239e-08 2.0239e-08 2.0239e-08 2.0239e-08 2.0239e-08 2.0239e-08 2.0239e-08 2.0239e-08 2.0239e-08 2.0239e-08 2.0239e-08 2.0239e-08 2.0239e-08 2.0239e-08 2.0239e-08 2.0239e-08 2.0239e-08 2.0239e-08 2.0239e-08 2.0239e-08 2.0239e-08 2.0239e-08 2.0239e-08 2.0239e-08 2.0239e-08 2.0239e-08 2.02389e-08 2.02389e-08 2.02389e-08 2.02388e-08 2.02387e-08 2.02386e-08 2.02384e-08 2.02381e-08 2.02376e-08 2.02369e-08 2.0236e-08 2.02346e-08 2.02326e-08 2.02299e-08 2.02261e-08 2.02209e-08 2.02137e-08 2.02041e-08 2.01912e-08 2.01743e-08 2.0152e-08 2.01231e-08 2.0086e-08 2.00388e-08 1.99794e-08 1.99053e-08 1.98137e-08 1.97017e-08 1.9566e-08 1.94033e-08 1.921e-08 1.89827e-08 1.87179e-08 1.84126e-08 1.80639e-08 1.76696e-08 1.7228e-08 1.67384e-08 1.62009e-08 1.56164e-08 1.49872e-08 1.43164e-08 1.36083e-08 1.28681e-08 1.2102e-08 1.13168e-08 1.05199e-08 9.71909e-09 8.92221e-09 8.13702e-09 7.3709e-09 6.63073e-09 5.92263e-09 5.25183e-09 4.62259e-09 4.03813e-09 3.50056e-09 3.01096e-09 2.56941e-09 2.17509e-09 1.8264e-09 1.52106e-09 1.25631e-09 1.02898e-09 8.35698e-10 6.72966e-10 5.37293e-10 4.25283e-10 3.33711e-10 2.59576e-10 2.00144e-10 1.52962e-10 1.1587e-10 8.6994e-11 6.47325e-11 4.77371e-11 3.48882e-11 2.52684e-11 1.81361e-11 1.28992e-11 9.09138e-12 6.34941e-12 4.39407e-12 3.01317e-12 2.04737e-12 1.37841e-12 9.19527e-13 6.07786e-13 3.98045e-13 2.58288e-13 1.66059e-13 1.05781e-13 6.67624e-14 4.1748e-14 2.58652e-14 1.58771e-14 9.65605e-15 5.81835e-15 3.47353e-15 2.05453e-15 1.20399e-15 6.99034e-16 4.02101e-16 2.29145e-16 1.29342e-16 7.22662e-17 3.9872e-17 2.15393e-17 1.10323e-17 4.63673e-18 0 
0 8.16674e-18 1.94234e-17 3.79e-17 7.01117e-17 1.26987e-16 2.27124e-16 4.02101e-16 7.05128e-16 1.22502e-15 2.10855e-15 3.5958e-15 6.07549e-15 1.01705e-14 1.68687e-14 2.77201e-14 4.51324e-14 7.28051e-14 1.16363e-13 1.8427e-13 2.89122e-13 4.49465e-13 6.92314e-13 1.05659e-12 1.59776e-12 2.39397e-12 3.55416e-12 5.22841e-12 7.62121e-12 1.10079e-11 1.57552e-11 2.23451e-11 3.14046e-11 4.37386e-11 6.0368e-11 8.25715e-11 1.1193e-10 1.50373e-10 2.00223e-10 2.64237e-10 3.4564e-10 4.4815e-10 5.75983e-10 7.33846e-10 9.26894e-10 1.16067e-09 1.44101e-09 1.7739e-09 2.16536e-09 2.62118e-09 3.14677e-09 3.74691e-09 4.42546e-09 5.18519e-09 6.02749e-09 6.95221e-09 7.95749e-09 9.03968e-09 1.01933e-08 1.14109e-08 1.26837e-08 1.40009e-08 1.5351e-08 1.67211e-08 1.8098e-08 1.94681e-08 2.08182e-08 2.21354e-08 2.34082e-08 2.46258e-08 2.57794e-08 2.68616e-08 2.78669e-08 2.87916e-08 2.96339e-08 3.03936e-08 3.10722e-08 3.16723e-08 3.21979e-08 3.26537e-08 3.30452e-08 3.33781e-08 3.36584e-08 3.38922e-08 3.40852e-08 3.42431e-08 3.43709e-08 3.44735e-08 3.45549e-08 3.46189e-08 3.46687e-08 3.47072e-08 3.47365e-08 3.47587e-08 3.47754e-08 3.47877e-08 3.47968e-08 3.48033e-08 3.48081e-08 3.48115e-08 3.48139e-08 3.48155e-08 3.48167e-08 3.48175e-08 3.4818e-08 3.48184e-08 3.48186e-08 3.48188e-08 3.48189e-08 3.4819e-08 3.4819e-08 3.4819e-08 3.48191e-08 3.48191e-08 3.48191e-08 3.48191e-08 3.48191e-08 3.48191e-08 3.48191e-08 3.48191e-08 3.48191e-08 3.48191e-08 3.48191e-08 3.48191e-08 3.48191e-08 3.48191e-08 3.48191e-08 3.48191e-08 3.48191e-08 3.48191e-08 3.48191e-08 3.48191e-08 3.48191e-08 3.48191e-08 3.48191e-08 3.48191e-08 3.48191e-08 3.48191e-08 3.48191e-08 3.48191e-08 3.48191e-08 3.48191e-08 3.48191e-08 3.48191e-08 3.4819e-08 3.4819e-08 3.4819e-08 3.48189e-08 3.48188e-08 3.48186e-08 3.48184e-08 3.4818e-08 3.48175e-08 3.48167e-08 3.48155e-08 3.48139e-08 3.48115e-08 3.48081e-08 3.48033e-08 3.47968e-08 3.47877e-08 3.47754e-08 3.47587e-08 3.47365e-08 3.47072e-08 3.46687e-08 3.46189e-08 3.45549e-08 3.44735e-08 3.43709e-08 3.42431e-08 3.40852e-08 3.38922e-08 3.36584e-08 3.33781e-08 3.30452e-08 3.26537e-08 3.21979e-08 3.16723e-08 3.10722e-08 3.03936e-08 2.96339e-08 2.87916e-08 2.78669e-08 2.68616e-08 2.57794e-08 2.46258e-08 2.34082e-08 2.21354e-08 2.08182e-08 1.94681e-08 1.8098e-08 1.67211e-08 1.5351e-08 1.40009e-08 1.26837e-08 1.14109e-08 1.01933e-08 9.03968e-09 7.95749e-09 6.95221e-09 6.02749e-09 5.18519e-09 4.42546e-09 3.74691e-09 3.14677e-09 2.62118e-09 2.16536e-09 1.7739e-09 1.44101e-09 1.16067e-09 9.26894e-10 7.33846e-10 5.75983e-10 4.4815e-10 3.4564e-10 2.64237e-10 2.00223e-10 1.50373e-10 1.1193e-10 8.25715e-11 6.0368e-11 4.37386e-11 3.14046e-11 2.23451e-11 1.57552e-11 1.10079e-11 7.62121e-12 5.22841e-12 3.55416e-12 2.39397e-12 1.59776e-12 1.05659e-12 6.92314e-13 4.49465e-13 2.89122e-13 1.8427e-13 1.16363e-13 7.28051e-14 4.51324e-14 2.77201e-14 1.68687e-14 1.01705e-14 6.07549e-15 3.5958e-15 2.10855e-15 1.22502e-15 7.05128e-16 4.02101e-16 2.27124e-16 1.26987e-16 7.01117e-17 3.79e-17 1.94234e-17 8.16674e-18 0 
0 1.42493e-17 3.38763e-17 6.6064e-17 1.22133e-16 2.2106e-16 3.9511e-16 6.99034e-16 1.22502e-15 2.12684e-15 3.65844e-15 6.23498e-15 1.05282e-14 1.76137e-14 2.91965e-14 4.79505e-14 7.8026e-14 1.25797e-13 2.0095e-13 3.18049e-13 4.98761e-13 7.74971e-13 1.1931e-12 1.81999e-12 2.75084e-12 4.11976e-12 6.11355e-12 8.98949e-12 1.30979e-11 1.89105e-11 2.70548e-11 3.83559e-11 5.38862e-11 7.50218e-11 1.03508e-10 1.41529e-10 1.91786e-10 2.57573e-10 3.42853e-10 4.5233e-10 5.91506e-10 7.66721e-10 9.85163e-10 1.25485e-09 1.58456e-09 1.98375e-09 2.46233e-09 3.03053e-09 3.69854e-09 4.47626e-09 5.37287e-09 6.39647e-09 7.55365e-09 8.84909e-09 1.02851e-08 1.18615e-08 1.35751e-08 1.54196e-08 1.73856e-08 1.94607e-08 2.16296e-08 2.38742e-08 2.61747e-08 2.85092e-08 3.08553e-08 3.31899e-08 3.54903e-08 3.7735e-08 3.99038e-08 4.19789e-08 4.3945e-08 4.57894e-08 4.7503e-08 4.90794e-08 5.05155e-08 5.18109e-08 5.29681e-08 5.39917e-08 5.48883e-08 5.5666e-08 5.6334e-08 5.69022e-08 5.73808e-08 5.778e-08 5.81097e-08 5.83794e-08 5.85978e-08 5.8773e-08 5.89122e-08 5.90217e-08 5.9107e-08 5.91728e-08 5.9223e-08 5.92611e-08 5.92895e-08 5.93107e-08 5.93262e-08 5.93375e-08 5.93456e-08 5.93515e-08 5.93556e-08 5.93584e-08 5.93604e-08 5.93618e-08 5.93627e-08 5.93634e-08 5.93638e-08 5.93641e-08 5.93642e-08 5.93644e-08 5.93644e-08 5.93645e-08 5.93645e-08 5.93645e-08 5.93645e-08 5.93645e-08 5.93645e-08 5.93646e-08 5.93646e-08 5.93646e-08 5.93646e-08 5.93646e-08 5.93646e-08 5.93646e-08 5.93646e-08 5.93646e-08 5.93646e-08 5.93646e-08 5.93646e-08 5.93646e-08 5.93646e-08 5.93646e-08 5.93646e-08 5.93646e-08 5.93646e-08 5.93646e-08 5.93646e-08 5.93646e-08 5.93646e-08 5.93645e-08 5.93645e-08 5.93645e-08 5.93645e-08 5.93645e-08 5.93645e-08 5.93644e-08 5.93644e-08 5.93642e-08 5.93641e-08 5.93638e-08 5.93634e-08 5.93627e-08 5.93618e-08 5.93604e-08 5.93584e-08 5.93556e-08 5.93515e-08 5.93456e-08 5.93375e-08 5.93262e-08 5.93107e-08 5.92895e-08 5.92611e-08 5.9223e-08 5.91728e-08 5.9107e-08 5.90217e-08 5.89122e-08 5.8773e-08 5.85978e-08 5.83794e-08 5.81097e-08 5.778e-08 5.73808e-08 5.69022e-08 5.6334e-08 5.5666e-08 5.48883e-08 5.39917e-08 5.29681e-08 5.18109e-08 5.05155e-08 4.90794e-08 4.7503e-08 4.57894e-08 4.3945e-08 4.19789e-08 3.99038e-08 3.7735e-08 3.54903e-08 3.31899e-08 3.08553e-08 2.85092e-08 2.61747e-08 2.38742e-08 2.16296e-08 1.94607e-08 1.73856e-08 1.54196e-08 1.35751e-08 1.18615e-08 1.02851e-08 8.84909e-09 7.55365e-09 6.39647e-09 5.37287e-09 4.47626e-09 3.69854e-09 3.03053e-09 2.46233e-09 1.98375e-09 1.58456e-09 1.25485e-09 9.85163e-10 7.66721e-10 5.91506e-10 4.5233e-10 3.42853e-10 2.57573e-10 1.91786e-10 1.41529e-10 1.03508e-10 7.50218e-11 5.38862e-11 3.83559e-11 2.70548e-11 1.89105e-11 1.30979e-11 8.98949e-12 6.11355e-12 4.11976e-12 2.75084e-12 1.81999e-12 1.1931e-12 7.74971e-13 4.98761e-13 3.18049e-13 2.0095e-13 1.25797e-13 7.8026e-14 4.79505e-14 2.91965e-14 1.76137e-14 1.05282e-14 6.23498e-15 3.65844e-15 2.12684e-15 1.22502e-15 6.99034e-16 3.9511e-16 2.2106e-16 1.22133e-16 6.6064e-17 3.38763e-17 1.42493e-17 0 