<?xml version="1.0"?>
<VTKFile type="ImageData" version="0.1" byte_order="LittleEndian">
  <ImageData WholeExtent="0 255 0 255 0 0" Origin="0 0 0" Spacing="1 1 1">
  <Piece Extent="0 255 0 255 0 0">
    <PointData>
      <DataArray type="Float32" Name="scalar_data" format="ascii" >0 0 0 0 0 0 0 0 0 0 0 0 0 0 0 0 0 0 0 0 0 0 0 0 0 0 0 0 0 0 0 0 0 0 0 0 0 0 0 0 0 0 0 0 0 0 0 0 0 0 0 0 0 0 0 0 0 0 0 0 0 0 0 0 0 0 0 0 0 0 0 0 0 0 0 0 0 0 0 0 0 0 0 0 0 0 0 0 0 0 0 0 0 0 0 0 0 0 0 0 0 0 0 0 0 0 0 0 0 0 0 0 0 0 0 0 0 0 0 0 0 0 0 0 0 0 0 0 0 0 0 0 0 0 0 0 0 0 0 0 0 0 0 0 0 0 0 0 0 0 0 0 0 0 0 0 0 0 0 0 0 0 0 0 0 0 0 0 0 0 0 0 0 0 0 0 0 0 0 0 0 0 0 0 0 0 0 0 0 0 0 0 0 0 0 0 0 0 0 0 0 0 0 0 0 0 0 0 0 0 0 0 0 0 0 0 0 0 0 0 0 0 0 0 0 0 0 0 0 0 0 0 0 0 0 0 0 0 0 0 0 0 0 0 0 0 0 0 0 0 0 0 0 0 0 0 
0 6.99314e-12 1.46498e-11 2.36827e-11 3.49058e-11 4.92905e-11 6.80309e-11 9.26182e-11 1.24929e-10 1.67332e-10 2.2281e-10 2.9511e-10 3.88919e-10 5.10073e-10 6.65792e-10 8.64967e-10 1.11848e-09 1.43956e-09 1.84422e-09 2.35169e-09 2.98496e-09 3.77131e-09 4.74289e-09 5.93741e-09 7.39876e-09 9.17769e-09 1.13325e-08 1.39297e-08 1.70445e-08 2.07617e-08 2.51758e-08 3.03914e-08 3.65234e-08 4.36973e-08 5.20483e-08 6.17215e-08 7.28704e-08 8.56566e-08 1.00248e-07 1.16816e-07 1.35535e-07 1.56581e-07 1.80123e-07 2.06329e-07 2.35354e-07 2.67341e-07 3.02419e-07 3.40693e-07 3.82249e-07 4.27144e-07 4.75404e-07 5.27023e-07 5.81962e-07 6.40143e-07 7.0145e-07 7.65732e-07 8.32796e-07 9.02416e-07 9.74329e-07 1.04824e-06 1.12383e-06 1.20075e-06 1.27864e-06 1.35711e-06 1.43577e-06 1.51424e-06 1.59213e-06 1.66905e-06 1.74464e-06 1.81855e-06 1.89046e-06 1.96008e-06 2.02715e-06 2.09143e-06 2.15274e-06 2.21092e-06 2.26585e-06 2.31747e-06 2.36573e-06 2.41063e-06 2.45218e-06 2.49046e-06 2.52554e-06 2.55752e-06 2.58655e-06 2.61275e-06 2.6363e-06 2.65734e-06 2.67606e-06 2.69263e-06 2.70722e-06 2.72001e-06 2.73116e-06 2.74083e-06 2.74918e-06 2.75635e-06 2.76249e-06 2.7677e-06 2.77212e-06 2.77583e-06 2.77895e-06 2.78155e-06 2.7837e-06 2.78548e-06 2.78694e-06 2.78814e-06 2.78911e-06 2.78989e-06 2.79053e-06 2.79103e-06 2.79144e-06 2.79176e-06 2.79201e-06 2.79221e-06 2.79237e-06 2.79249e-06 2.79258e-06 2.79265e-06 2.79271e-06 2.79275e-06 2.79278e-06 2.79281e-06 2.79283e-06 2.79284e-06 2.79285e-06 2.79285e-06 2.79286e-06 2.79286e-06 2.79286e-06 2.79286e-06 2.79285e-06 2.79285e-06 2.79284e-06 2.79283e-06 2.79281e-06 2.79278e-06 2.79275e-06 2.79271e-06 2.79265e-06 2.79258e-06 2.79249e-06 2.79237e-06 2.79221e-06 2.79201e-06 2.79176e-06 2.79144e-06 2.79103e-06 2.79053e-06 2.78989e-06 2.78911e-06 2.78814e-06 2.78694e-06 2.78548e-06 2.7837e-06 2.78155e-06 2.77895e-06 2.77583e-06 2.77212e-06 2.7677e-06 2.76249e-06 2.75635e-06 2.74918e-06 2.74083e-06 2.73116e-06 2.72001e-06 2.70722e-06 2.69263e-06 2.67606e-06 2.65734e-06 2.6363e-06 2.61275e-06 2.58655e-06 2.55752e-06 2.52554e-06 2.49046e-06 2.45218e-06 2.41063e-06 2.36573e-06 2.31747e-06 2.26585e-06 2.21092e-06 2.15274e-06 2.09143e-06 2.02715e-06 1.96008e-06 1.89046e-06 1.81855e-06 1.74464e-06 1.66905e-06 1.59213e-06 1.51424e-06 1.43577e-06 1.35711e-06 1.27864e-06 1.20075e-06 1.12383e-06 1.04824e-06 9.74329e-07 9.02416e-07 8.32796e-07 7.65732e-07 7.0145e-07 6.40143e-07 5.81962e-07 5.27023e-07 4.75404e-07 4.27144e-07 3.82249e-07 3.40693e-07 3.02419e-07 2.67341e-07 2.35354e-07 2.06329e-07 1.80123e-07 1.56581e-07 1.35535e-07 1.16816e-07 1.00248e-07 8.56566e-08 7.28704e-08 6.17215e-08 5.20483e-08 4.36973e-08 3.65234e-08 3.03914e-08 2.51758e-08 2.07617e-08 1.70445e-08 1.39297e-08 1.13325e-08 9.17769e-09 7.39876e-09 5.93741e-09 4.74289e-09 3.77131e-09 2.98496e-09 2.35169e-09 1.84422e-09 1.43956e-09 1.11848e-09 8.64967e-10 6.65792e-10 5.10073e-10 3.88919e-10 2.9511e-10 2.2281e-10 1.67332e-10 1.24929e-10 9.26182e-11 6.80309e-11 4.92905e-11 3.49058e-11 2.36827e-11 1.46498e-11 6.99314e-12 0 
0 1.46498e-11 3.06893e-11 4.96112e-11 7.31199e-11 1.0325e-10 1.42502e-10 1.93999e-10 2.6167e-10 3.50474e-10 4.66657e-10 6.18066e-10 8.14513e-10 1.06821e-09 1.39429e-09 1.81135e-09 2.34216e-09 3.01445e-09 3.86171e-09 4.92421e-09 6.25006e-09 7.89635e-09 9.93041e-09 1.24311e-08 1.54904e-08 1.92145e-08 2.37253e-08 2.9162e-08 3.56822e-08 4.34632e-08 5.27028e-08 6.36198e-08 7.64549e-08 9.14704e-08 1.0895e-07 1.29196e-07 1.5253e-07 1.79291e-07 2.09829e-07 2.44504e-07 2.83681e-07 3.27726e-07 3.76996e-07 4.31839e-07 4.9258e-07 5.59521e-07 6.32928e-07 7.13026e-07 7.99989e-07 8.93937e-07 9.94927e-07 1.10295e-06 1.21791e-06 1.33966e-06 1.46795e-06 1.60247e-06 1.7428e-06 1.88849e-06 2.03897e-06 2.19363e-06 2.3518e-06 2.51276e-06 2.67574e-06 2.83994e-06 3.00455e-06 3.16875e-06 3.33173e-06 3.49268e-06 3.65086e-06 3.80552e-06 3.956e-06 4.10169e-06 4.24202e-06 4.37653e-06 4.50483e-06 4.62658e-06 4.74154e-06 4.84956e-06 4.95055e-06 5.0445e-06 5.13146e-06 5.21156e-06 5.28497e-06 5.35191e-06 5.41265e-06 5.46749e-06 5.51676e-06 5.56081e-06 5.59998e-06 5.63466e-06 5.6652e-06 5.69196e-06 5.71529e-06 5.73554e-06 5.75302e-06 5.76803e-06 5.78087e-06 5.79179e-06 5.80103e-06 5.80881e-06 5.81533e-06 5.82076e-06 5.82527e-06 5.829e-06 5.83206e-06 5.83456e-06 5.83659e-06 5.83824e-06 5.83956e-06 5.84063e-06 5.84147e-06 5.84215e-06 5.84268e-06 5.84309e-06 5.84342e-06 5.84367e-06 5.84387e-06 5.84402e-06 5.84414e-06 5.84422e-06 5.84429e-06 5.84434e-06 5.84438e-06 5.84441e-06 5.84443e-06 5.84444e-06 5.84445e-06 5.84445e-06 5.84445e-06 5.84445e-06 5.84444e-06 5.84443e-06 5.84441e-06 5.84438e-06 5.84434e-06 5.84429e-06 5.84422e-06 5.84414e-06 5.84402e-06 5.84387e-06 5.84367e-06 5.84342e-06 5.84309e-06 5.84268e-06 5.84215e-06 5.84147e-06 5.84063e-06 5.83956e-06 5.83824e-06 5.83659e-06 5.83456e-06 5.83206e-06 5.829e-06 5.82527e-06 5.82076e-06 5.81533e-06 5.80881e-06 5.80103e-06 5.79179e-06 5.78087e-06 5.76803e-06 5.75302e-06 5.73554e-06 5.71529e-06 5.69196e-06 5.6652e-06 5.63466e-06 5.59998e-06 5.56081e-06 5.51676e-06 5.46749e-06 5.41265e-06 5.35191e-06 5.28497e-06 5.21156e-06 5.13146e-06 5.0445e-06 4.95055e-06 4.84956e-06 4.74154e-06 4.62658e-06 4.50483e-06 4.37653e-06 4.24202e-06 4.10169e-06 3.956e-06 3.80552e-06 3.65086e-06 3.49268e-06 3.33173e-06 3.16875e-06 3.00455e-06 2.83994e-06 2.67574e-06 2.51276e-06 2.3518e-06 2.19363e-06 2.03897e-06 1.88849e-06 1.7428e-06 1.60247e-06 1.46795e-06 1.33966e-06 1.21791e-06 1.10295e-06 9.94927e-07 8.93937e-07 7.99989e-07 7.13026e-07 6.32928e-07 5.59521e-07 4.9258e-07 4.31839e-07 3.76996e-07 3.27726e-07 2.83681e-07 2.44504e-07 2.09829e-07 1.79291e-07 1.5253e-07 1.29196e-07 1.0895e-07 9.14704e-08 7.64549e-08 6.36198e-08 5.27028e-08 4.34632e-08 3.56822e-08 2.9162e-08 2.37253e-08 1.92145e-08 1.54904e-08 1.24311e-08 9.93041e-09 7.89635e-09 6.25006e-09 4.92421e-09 3.86171e-09 3.01445e-09 2.34216e-09 1.81135e-09 1.39429e-09 1.06821e-09 8.14513e-10 6.18066e-10 4.66657e-10 3.50474e-10 2.6167e-10 1.93999e-10 1.42502e-10 1.0325e-10 7.31199e-11 4.96112e-11 3.06893e-11 1.46498e-11 0 
0 2.36827e-11 4.96112e-11 8.01976e-11 1.18196e-10 1.66894e-10 2.30331e-10 3.13553e-10 4.22908e-10 5.66405e-10 7.54134e-10 9.98769e-10 1.31616e-09 1.72603e-09 2.25281e-09 2.92654e-09 3.784e-09 4.86994e-09 6.23846e-09 7.95458e-09 1.0096e-08 1.27548e-08 1.60398e-08 2.00783e-08 2.50186e-08 3.10322e-08 3.8316e-08 4.70947e-08 5.76226e-08 7.01858e-08 8.51034e-08 1.02729e-07 1.23451e-07 1.47692e-07 1.7591e-07 2.08593e-07 2.46262e-07 2.8946e-07 3.38755e-07 3.94727e-07 4.57964e-07 5.29057e-07 6.08582e-07 6.971e-07 7.95138e-07 9.0318e-07 1.02166e-06 1.15093e-06 1.29128e-06 1.4429e-06 1.60589e-06 1.78021e-06 1.96575e-06 2.16223e-06 2.36927e-06 2.58634e-06 2.81281e-06 3.04791e-06 3.29075e-06 3.54034e-06 3.79559e-06 4.05533e-06 4.31833e-06 4.58331e-06 4.84895e-06 5.11392e-06 5.37692e-06 5.63666e-06 5.89192e-06 6.14151e-06 6.38434e-06 6.61944e-06 6.84591e-06 7.06299e-06 7.27003e-06 7.46651e-06 7.65204e-06 7.82637e-06 7.98935e-06 8.14098e-06 8.28133e-06 8.4106e-06 8.52908e-06 8.63712e-06 8.73515e-06 8.82367e-06 8.9032e-06 8.97429e-06 9.03753e-06 9.0935e-06 9.1428e-06 9.18599e-06 9.22366e-06 9.25635e-06 9.28456e-06 9.30881e-06 9.32953e-06 9.34715e-06 9.36207e-06 9.37463e-06 9.38516e-06 9.39394e-06 9.40122e-06 9.40724e-06 9.41218e-06 9.41622e-06 9.4195e-06 9.42216e-06 9.4243e-06 9.42602e-06 9.42739e-06 9.42847e-06 9.42933e-06 9.43e-06 9.43053e-06 9.43094e-06 9.43126e-06 9.4315e-06 9.43169e-06 9.43183e-06 9.43194e-06 9.43202e-06 9.43208e-06 9.43212e-06 9.43215e-06 9.43217e-06 9.43219e-06 9.43219e-06 9.43219e-06 9.43219e-06 9.43217e-06 9.43215e-06 9.43212e-06 9.43208e-06 9.43202e-06 9.43194e-06 9.43183e-06 9.43169e-06 9.4315e-06 9.43126e-06 9.43094e-06 9.43053e-06 9.43e-06 9.42933e-06 9.42847e-06 9.42739e-06 9.42602e-06 9.4243e-06 9.42216e-06 9.4195e-06 9.41622e-06 9.41218e-06 9.40724e-06 9.40122e-06 9.39394e-06 9.38516e-06 9.37463e-06 9.36207e-06 9.34715e-06 9.32953e-06 9.30881e-06 9.28456e-06 9.25635e-06 9.22366e-06 9.18599e-06 9.1428e-06 9.0935e-06 9.03753e-06 8.97429e-06 8.9032e-06 8.82367e-06 8.73515e-06 8.63712e-06 8.52908e-06 8.4106e-06 8.28133e-06 8.14098e-06 7.98935e-06 7.82637e-06 7.65204e-06 7.46651e-06 7.27003e-06 7.06299e-06 6.84591e-06 6.61944e-06 6.38434e-06 6.14151e-06 5.89192e-06 5.63666e-06 5.37692e-06 5.11392e-06 4.84895e-06 4.58331e-06 4.31833e-06 4.05533e-06 3.79559e-06 3.54034e-06 3.29075e-06 3.04791e-06 2.81281e-06 2.58634e-06 2.36927e-06 2.16223e-06 1.96575e-06 1.78021e-06 1.60589e-06 1.4429e-06 1.29128e-06 1.15093e-06 1.02166e-06 9.0318e-07 7.95138e-07 6.971e-07 6.08582e-07 5.29057e-07 4.57964e-07 3.94727e-07 3.38755e-07 2.8946e-07 2.46262e-07 2.08593e-07 1.7591e-07 1.47692e-07 1.23451e-07 1.02729e-07 8.51034e-08 7.01858e-08 5.76226e-08 4.70947e-08 3.8316e-08 3.10322e-08 2.50186e-08 2.00783e-08 1.60398e-08 1.27548e-08 1.0096e-08 7.95458e-09 6.23846e-09 4.86994e-09 3.784e-09 2.92654e-09 2.25281e-09 1.72603e-09 1.31616e-09 9.98769e-10 7.54134e-10 5.66405e-10 4.22908e-10 3.13553e-10 2.30331e-10 1.66894e-10 1.18196e-10 8.01976e-11 4.96112e-11 2.36827e-11 0 
0 3.49058e-11 7.31199e-11 1.18196e-10 1.74191e-10 2.45947e-10 3.39414e-10 4.62021e-10 6.23118e-10 8.34498e-10 1.11102e-09 1.47133e-09 1.93878e-09 2.5424e-09 3.31813e-09 4.31022e-09 5.57279e-09 7.17169e-09 9.18655e-09 1.1713e-08 1.48655e-08 1.87794e-08 2.36149e-08 2.95592e-08 3.68307e-08 4.56814e-08 5.64012e-08 6.93205e-08 8.48134e-08 1.03301e-07 1.25252e-07 1.51186e-07 1.81676e-07 2.17343e-07 2.58859e-07 3.06943e-07 3.6236e-07 4.25911e-07 4.98427e-07 5.80764e-07 6.73787e-07 7.78361e-07 8.95337e-07 1.02554e-06 1.16974e-06 1.32865e-06 1.5029e-06 1.69303e-06 1.89945e-06 2.12244e-06 2.36214e-06 2.61852e-06 2.89137e-06 3.18032e-06 3.48479e-06 3.80402e-06 4.13706e-06 4.48278e-06 4.83989e-06 5.20692e-06 5.58228e-06 5.96424e-06 6.35099e-06 6.74064e-06 7.13126e-06 7.52091e-06 7.90766e-06 8.28962e-06 8.66498e-06 9.03201e-06 9.38912e-06 9.73484e-06 1.00679e-05 1.03871e-05 1.06916e-05 1.09805e-05 1.12534e-05 1.15098e-05 1.17495e-05 1.19725e-05 1.21789e-05 1.2369e-05 1.25433e-05 1.27022e-05 1.28464e-05 1.29766e-05 1.30935e-05 1.31981e-05 1.32911e-05 1.33735e-05 1.3446e-05 1.35095e-05 1.3565e-05 1.3613e-05 1.36546e-05 1.36902e-05 1.37207e-05 1.37466e-05 1.37686e-05 1.37871e-05 1.38026e-05 1.38155e-05 1.38262e-05 1.38351e-05 1.38423e-05 1.38483e-05 1.38531e-05 1.3857e-05 1.38602e-05 1.38627e-05 1.38647e-05 1.38663e-05 1.38676e-05 1.38686e-05 1.38694e-05 1.387e-05 1.38704e-05 1.38708e-05 1.38711e-05 1.38713e-05 1.38714e-05 1.38716e-05 1.38716e-05 1.38717e-05 1.38718e-05 1.38718e-05 1.38718e-05 1.38718e-05 1.38718e-05 1.38718e-05 1.38718e-05 1.38718e-05 1.38717e-05 1.38716e-05 1.38716e-05 1.38714e-05 1.38713e-05 1.38711e-05 1.38708e-05 1.38704e-05 1.387e-05 1.38694e-05 1.38686e-05 1.38676e-05 1.38663e-05 1.38647e-05 1.38627e-05 1.38602e-05 1.3857e-05 1.38531e-05 1.38483e-05 1.38423e-05 1.38351e-05 1.38262e-05 1.38155e-05 1.38026e-05 1.37871e-05 1.37686e-05 1.37466e-05 1.37207e-05 1.36902e-05 1.36546e-05 1.3613e-05 1.3565e-05 1.35095e-05 1.3446e-05 1.33735e-05 1.32911e-05 1.31981e-05 1.30935e-05 1.29766e-05 1.28464e-05 1.27022e-05 1.25433e-05 1.2369e-05 1.21789e-05 1.19725e-05 1.17495e-05 1.15098e-05 1.12534e-05 1.09805e-05 1.06916e-05 1.03871e-05 1.00679e-05 9.73484e-06 9.38912e-06 9.03201e-06 8.66498e-06 8.28962e-06 7.90766e-06 7.52091e-06 7.13126e-06 6.74064e-06 6.35099e-06 5.96424e-06 5.58228e-06 5.20692e-06 4.83989e-06 4.48278e-06 4.13706e-06 3.80402e-06 3.48479e-06 3.18032e-06 2.89137e-06 2.61852e-06 2.36214e-06 2.12244e-06 1.89945e-06 1.69303e-06 1.5029e-06 1.32865e-06 1.16974e-06 1.02554e-06 8.95337e-07 7.78361e-07 6.73787e-07 5.80764e-07 4.98427e-07 4.25911e-07 3.6236e-07 3.06943e-07 2.58859e-07 2.17343e-07 1.81676e-07 1.51186e-07 1.25252e-07 1.03301e-07 8.48134e-08 6.93205e-08 5.64012e-08 4.56814e-08 3.68307e-08 2.95592e-08 2.36149e-08 1.87794e-08 1.48655e-08 1.1713e-08 9.18655e-09 7.17169e-09 5.57279e-09 4.31022e-09 3.31813e-09 2.5424e-09 1.93878e-09 1.47133e-09 1.11102e-09 8.34498e-10 6.23118e-10 4.62021e-10 3.39414e-10 2.45947e-10 1.74191e-10 1.18196e-10 7.31199e-11 3.49058e-11 0 
0 4.92905e-11 1.0325e-10 1.66894e-10 2.45947e-10 3.47242e-10 4.79172e-10 6.5222e-10 8.79574e-10 1.17787e-09 1.56805e-09 2.07645e-09 2.73595e-09 3.58752e-09 4.68183e-09 6.08124e-09 7.86208e-09 1.01172e-08 1.29588e-08 1.65217e-08 2.0967e-08 2.6486e-08 3.33039e-08 4.16849e-08 5.19363e-08 6.44138e-08 7.95253e-08 9.77365e-08 1.19574e-07 1.45632e-07 1.7657e-07 2.13121e-07 2.5609e-07 3.06352e-07 3.64856e-07 4.32613e-07 5.10699e-07 6.00243e-07 7.02416e-07 8.18422e-07 9.49479e-07 1.09681e-06 1.2616e-06 1.44502e-06 1.64815e-06 1.87201e-06 2.11747e-06 2.38528e-06 2.67604e-06 2.99013e-06 3.32775e-06 3.68886e-06 4.07317e-06 4.48014e-06 4.90896e-06 5.35857e-06 5.82762e-06 6.31453e-06 6.81747e-06 7.33439e-06 7.86302e-06 8.40095e-06 8.94562e-06 9.49438e-06 1.00445e-05 1.05933e-05 1.11379e-05 1.16759e-05 1.22045e-05 1.27214e-05 1.32244e-05 1.37113e-05 1.41803e-05 1.46299e-05 1.50588e-05 1.54657e-05 1.585e-05 1.62111e-05 1.65488e-05 1.68629e-05 1.71536e-05 1.74214e-05 1.76669e-05 1.78907e-05 1.80939e-05 1.82773e-05 1.84421e-05 1.85894e-05 1.87205e-05 1.88365e-05 1.89387e-05 1.90282e-05 1.91063e-05 1.9174e-05 1.92325e-05 1.92828e-05 1.93258e-05 1.93623e-05 1.93933e-05 1.94193e-05 1.94412e-05 1.94594e-05 1.94745e-05 1.9487e-05 1.94972e-05 1.95056e-05 1.95124e-05 1.95179e-05 1.95224e-05 1.95259e-05 1.95288e-05 1.9531e-05 1.95328e-05 1.95342e-05 1.95353e-05 1.95362e-05 1.95368e-05 1.95373e-05 1.95377e-05 1.9538e-05 1.95382e-05 1.95384e-05 1.95385e-05 1.95386e-05 1.95387e-05 1.95387e-05 1.95388e-05 1.95388e-05 1.95388e-05 1.95388e-05 1.95387e-05 1.95387e-05 1.95386e-05 1.95385e-05 1.95384e-05 1.95382e-05 1.9538e-05 1.95377e-05 1.95373e-05 1.95368e-05 1.95362e-05 1.95353e-05 1.95342e-05 1.95328e-05 1.9531e-05 1.95288e-05 1.95259e-05 1.95224e-05 1.95179e-05 1.95124e-05 1.95056e-05 1.94972e-05 1.9487e-05 1.94745e-05 1.94594e-05 1.94412e-05 1.94193e-05 1.93933e-05 1.93623e-05 1.93258e-05 1.92828e-05 1.92325e-05 1.9174e-05 1.91063e-05 1.90282e-05 1.89387e-05 1.88365e-05 1.87205e-05 1.85894e-05 1.84421e-05 1.82773e-05 1.80939e-05 1.78907e-05 1.76669e-05 1.74214e-05 1.71536e-05 1.68629e-05 1.65488e-05 1.62111e-05 1.585e-05 1.54657e-05 1.50588e-05 1.46299e-05 1.41803e-05 1.37113e-05 1.32244e-05 1.27214e-05 1.22045e-05 1.16759e-05 1.11379e-05 1.05933e-05 1.00445e-05 9.49438e-06 8.94562e-06 8.40095e-06 7.86302e-06 7.33439e-06 6.81747e-06 6.31453e-06 5.82762e-06 5.35857e-06 4.90896e-06 4.48014e-06 4.07317e-06 3.68886e-06 3.32775e-06 2.99013e-06 2.67604e-06 2.38528e-06 2.11747e-06 1.87201e-06 1.64815e-06 1.44502e-06 1.2616e-06 1.09681e-06 9.49479e-07 8.18422e-07 7.02416e-07 6.00243e-07 5.10699e-07 4.32613e-07 3.64856e-07 3.06352e-07 2.5609e-07 2.13121e-07 1.7657e-07 1.45632e-07 1.19574e-07 9.77365e-08 7.95253e-08 6.44138e-08 5.19363e-08 4.16849e-08 3.33039e-08 2.6486e-08 2.0967e-08 1.65217e-08 1.29588e-08 1.01172e-08 7.86208e-09 6.08124e-09 4.68183e-09 3.58752e-09 2.73595e-09 2.07645e-09 1.56805e-09 1.17787e-09 8.79574e-10 6.5222e-10 4.79172e-10 3.47242e-10 2.45947e-10 1.66894e-10 1.0325e-10 4.92905e-11 0 
0 6.80309e-11 1.42502e-10 2.30331e-10 3.39414e-10 4.79172e-10 6.61181e-10 8.99892e-10 1.21349e-09 1.6249e-09 2.163e-09 2.86407e-09 3.77345e-09 4.94757e-09 6.45626e-09 8.38545e-09 1.08403e-08 1.39487e-08 1.78652e-08 2.27756e-08 2.89018e-08 3.65069e-08 4.59016e-08 5.74493e-08 7.15735e-08 8.87635e-08 1.09581e-07 1.34668e-07 1.64749e-07 2.0064e-07 2.43252e-07 2.93593e-07 3.52769e-07 4.21986e-07 5.02549e-07 5.95852e-07 7.03373e-07 8.26666e-07 9.67342e-07 1.12706e-06 1.30749e-06 1.51031e-06 1.73718e-06 1.98968e-06 2.26931e-06 2.57745e-06 2.91532e-06 3.28395e-06 3.68416e-06 4.11648e-06 4.58117e-06 5.07817e-06 5.6071e-06 6.1672e-06 6.75738e-06 7.37615e-06 8.02168e-06 8.69178e-06 9.38392e-06 1.00953e-05 1.08228e-05 1.15631e-05 1.23126e-05 1.30678e-05 1.38249e-05 1.45801e-05 1.53297e-05 1.60699e-05 1.67974e-05 1.75088e-05 1.8201e-05 1.88711e-05 1.95166e-05 2.01354e-05 2.07255e-05 2.12856e-05 2.18146e-05 2.23116e-05 2.27763e-05 2.32086e-05 2.36088e-05 2.39774e-05 2.43153e-05 2.46234e-05 2.49031e-05 2.51556e-05 2.53824e-05 2.55852e-05 2.57657e-05 2.59254e-05 2.60661e-05 2.61894e-05 2.62969e-05 2.63902e-05 2.64707e-05 2.654e-05 2.65991e-05 2.66495e-05 2.66921e-05 2.6728e-05 2.67581e-05 2.67832e-05 2.6804e-05 2.68212e-05 2.68353e-05 2.68468e-05 2.68562e-05 2.68638e-05 2.687e-05 2.68749e-05 2.68788e-05 2.68819e-05 2.68844e-05 2.68863e-05 2.68878e-05 2.6889e-05 2.68899e-05 2.68906e-05 2.68911e-05 2.68915e-05 2.68918e-05 2.68921e-05 2.68922e-05 2.68924e-05 2.68924e-05 2.68925e-05 2.68925e-05 2.68926e-05 2.68926e-05 2.68925e-05 2.68925e-05 2.68924e-05 2.68924e-05 2.68922e-05 2.68921e-05 2.68918e-05 2.68915e-05 2.68911e-05 2.68906e-05 2.68899e-05 2.6889e-05 2.68878e-05 2.68863e-05 2.68844e-05 2.68819e-05 2.68788e-05 2.68749e-05 2.687e-05 2.68638e-05 2.68562e-05 2.68468e-05 2.68353e-05 2.68212e-05 2.6804e-05 2.67832e-05 2.67581e-05 2.6728e-05 2.66921e-05 2.66495e-05 2.65991e-05 2.654e-05 2.64707e-05 2.63902e-05 2.62969e-05 2.61894e-05 2.60661e-05 2.59254e-05 2.57657e-05 2.55852e-05 2.53824e-05 2.51556e-05 2.49031e-05 2.46234e-05 2.43153e-05 2.39774e-05 2.36088e-05 2.32086e-05 2.27763e-05 2.23116e-05 2.18146e-05 2.12856e-05 2.07255e-05 2.01354e-05 1.95166e-05 1.88711e-05 1.8201e-05 1.75088e-05 1.67974e-05 1.60699e-05 1.53297e-05 1.45801e-05 1.38249e-05 1.30678e-05 1.23126e-05 1.15631e-05 1.08228e-05 1.00953e-05 9.38392e-06 8.69178e-06 8.02168e-06 7.37615e-06 6.75738e-06 6.1672e-06 5.6071e-06 5.07817e-06 4.58117e-06 4.11648e-06 3.68416e-06 3.28395e-06 2.91532e-06 2.57745e-06 2.26931e-06 1.98968e-06 1.73718e-06 1.51031e-06 1.30749e-06 1.12706e-06 9.67342e-07 8.26666e-07 7.03373e-07 5.95852e-07 5.02549e-07 4.21986e-07 3.52769e-07 2.93593e-07 2.43252e-07 2.0064e-07 1.64749e-07 1.34668e-07 1.09581e-07 8.87635e-08 7.15735e-08 5.74493e-08 4.59016e-08 3.65069e-08 2.89018e-08 2.27756e-08 1.78652e-08 1.39487e-08 1.08403e-08 8.38545e-09 6.45626e-09 4.94757e-09 3.77345e-09 2.86407e-09 2.163e-09 1.6249e-09 1.21349e-09 8.99892e-10 6.61181e-10 4.79172e-10 3.39414e-10 2.30331e-10 1.42502e-10 6.80309e-11 0 
0 9.26182e-11 1.93999e-10 3.13553e-10 4.62021e-10 6.5222e-10 8.99892e-10 1.22469e-09 1.65134e-09 2.21101e-09 2.94298e-09 3.89653e-09 5.13332e-09 6.73004e-09 8.78159e-09 1.14048e-08 1.47424e-08 1.89683e-08 2.42925e-08 3.09674e-08 3.92943e-08 4.96308e-08 6.23986e-08 7.80916e-08 9.72848e-08 1.20643e-07 1.48928e-07 1.83012e-07 2.23879e-07 2.72637e-07 3.30522e-07 3.98902e-07 4.7928e-07 5.73293e-07 6.8271e-07 8.09424e-07 9.55442e-07 1.12287e-06 1.3139e-06 1.53077e-06 1.77577e-06 2.05116e-06 2.35918e-06 2.70198e-06 3.08162e-06 3.49995e-06 3.95863e-06 4.45906e-06 5.00233e-06 5.58919e-06 6.21997e-06 6.8946e-06 7.61255e-06 8.37281e-06 9.17387e-06 1.00137e-05 1.08899e-05 1.17994e-05 1.27388e-05 1.37043e-05 1.46917e-05 1.56965e-05 1.67138e-05 1.77387e-05 1.87663e-05 1.97912e-05 2.08085e-05 2.18133e-05 2.28007e-05 2.37662e-05 2.47056e-05 2.56151e-05 2.64913e-05 2.73311e-05 2.81322e-05 2.88924e-05 2.96104e-05 3.0285e-05 3.09158e-05 3.15027e-05 3.20459e-05 3.25464e-05 3.30051e-05 3.34234e-05 3.3803e-05 3.41458e-05 3.44538e-05 3.47292e-05 3.49742e-05 3.51911e-05 3.53821e-05 3.55496e-05 3.56956e-05 3.58223e-05 3.59317e-05 3.60257e-05 3.61061e-05 3.61745e-05 3.62324e-05 3.62811e-05 3.6322e-05 3.63561e-05 3.63844e-05 3.64077e-05 3.64269e-05 3.64426e-05 3.64554e-05 3.64657e-05 3.6474e-05 3.64807e-05 3.6486e-05 3.64903e-05 3.64936e-05 3.64962e-05 3.64983e-05 3.64999e-05 3.65011e-05 3.65021e-05 3.65028e-05 3.65033e-05 3.65038e-05 3.65041e-05 3.65043e-05 3.65045e-05 3.65046e-05 3.65047e-05 3.65047e-05 3.65048e-05 3.65048e-05 3.65047e-05 3.65047e-05 3.65046e-05 3.65045e-05 3.65043e-05 3.65041e-05 3.65038e-05 3.65033e-05 3.65028e-05 3.65021e-05 3.65011e-05 3.64999e-05 3.64983e-05 3.64962e-05 3.64936e-05 3.64903e-05 3.6486e-05 3.64807e-05 3.6474e-05 3.64657e-05 3.64554e-05 3.64426e-05 3.64269e-05 3.64077e-05 3.63844e-05 3.63561e-05 3.6322e-05 3.62811e-05 3.62324e-05 3.61745e-05 3.61061e-05 3.60257e-05 3.59317e-05 3.58223e-05 3.56956e-05 3.55496e-05 3.53821e-05 3.51911e-05 3.49742e-05 3.47292e-05 3.44538e-05 3.41458e-05 3.3803e-05 3.34234e-05 3.30051e-05 3.25464e-05 3.20459e-05 3.15027e-05 3.09158e-05 3.0285e-05 2.96104e-05 2.88924e-05 2.81322e-05 2.73311e-05 2.64913e-05 2.56151e-05 2.47056e-05 2.37662e-05 2.28007e-05 2.18133e-05 2.08085e-05 1.97912e-05 1.87663e-05 1.77387e-05 1.67138e-05 1.56965e-05 1.46917e-05 1.37043e-05 1.27388e-05 1.17994e-05 1.08899e-05 1.00137e-05 9.17387e-06 8.37281e-06 7.61255e-06 6.8946e-06 6.21997e-06 5.58919e-06 5.00233e-06 4.45906e-06 3.95863e-06 3.49995e-06 3.08162e-06 2.70198e-06 2.35918e-06 2.05116e-06 1.77577e-06 1.53077e-06 1.3139e-06 1.12287e-06 9.55442e-07 8.09424e-07 6.8271e-07 5.73293e-07 4.7928e-07 3.98902e-07 3.30522e-07 2.72637e-07 2.23879e-07 1.83012e-07 1.48928e-07 1.20643e-07 9.72848e-08 7.80916e-08 6.23986e-08 4.96308e-08 3.92943e-08 3.09674e-08 2.42925e-08 1.89683e-08 1.47424e-08 1.14048e-08 8.78159e-09 6.73004e-09 5.13332e-09 3.89653e-09 2.94298e-09 2.21101e-09 1.65134e-09 1.22469e-09 8.99892e-10 6.5222e-10 4.62021e-10 3.13553e-10 1.93999e-10 9.26182e-11 0 
0 1.24929e-10 2.6167e-10 4.22908e-10 6.23118e-10 8.79574e-10 1.21349e-09 1.65134e-09 2.22644e-09 2.98077e-09 3.96723e-09 5.25223e-09 6.91876e-09 9.0701e-09 1.18341e-08 1.53678e-08 1.98638e-08 2.55558e-08 3.27266e-08 4.1716e-08 5.29294e-08 6.68481e-08 8.40395e-08 1.05168e-07 1.31008e-07 1.62452e-07 2.00528e-07 2.46407e-07 3.01413e-07 3.67036e-07 4.44939e-07 5.36961e-07 6.45125e-07 7.7163e-07 9.18856e-07 1.08935e-06 1.2858e-06 1.51106e-06 1.76805e-06 2.0598e-06 2.38937e-06 2.75981e-06 3.17413e-06 3.63523e-06 4.14585e-06 4.7085e-06 5.3254e-06 5.99843e-06 6.72906e-06 7.51828e-06 8.36656e-06 9.27379e-06 1.02393e-05 1.12616e-05 1.23388e-05 1.34681e-05 1.46463e-05 1.58693e-05 1.71324e-05 1.84307e-05 1.97583e-05 2.11093e-05 2.24772e-05 2.38554e-05 2.5237e-05 2.66151e-05 2.7983e-05 2.9334e-05 3.06617e-05 3.19599e-05 3.32231e-05 3.44461e-05 3.56242e-05 3.67536e-05 3.78308e-05 3.88531e-05 3.98186e-05 4.07258e-05 4.15741e-05 4.23633e-05 4.30939e-05 4.3767e-05 4.43839e-05 4.49465e-05 4.54571e-05 4.59182e-05 4.63325e-05 4.6703e-05 4.70326e-05 4.73243e-05 4.75813e-05 4.78066e-05 4.8003e-05 4.81735e-05 4.83207e-05 4.84472e-05 4.85554e-05 4.86474e-05 4.87253e-05 4.87909e-05 4.88459e-05 4.88918e-05 4.89299e-05 4.89613e-05 4.89872e-05 4.90083e-05 4.90255e-05 4.90394e-05 4.90506e-05 4.90596e-05 4.90668e-05 4.90725e-05 4.9077e-05 4.90805e-05 4.90833e-05 4.90854e-05 4.90871e-05 4.90884e-05 4.90894e-05 4.90901e-05 4.90907e-05 4.90911e-05 4.90914e-05 4.90917e-05 4.90918e-05 4.90919e-05 4.9092e-05 4.9092e-05 4.9092e-05 4.9092e-05 4.90919e-05 4.90918e-05 4.90917e-05 4.90914e-05 4.90911e-05 4.90907e-05 4.90901e-05 4.90894e-05 4.90884e-05 4.90871e-05 4.90854e-05 4.90833e-05 4.90805e-05 4.9077e-05 4.90725e-05 4.90668e-05 4.90596e-05 4.90506e-05 4.90394e-05 4.90255e-05 4.90083e-05 4.89872e-05 4.89613e-05 4.89299e-05 4.88918e-05 4.88459e-05 4.87909e-05 4.87253e-05 4.86474e-05 4.85554e-05 4.84472e-05 4.83207e-05 4.81735e-05 4.8003e-05 4.78066e-05 4.75813e-05 4.73243e-05 4.70326e-05 4.6703e-05 4.63325e-05 4.59182e-05 4.54571e-05 4.49465e-05 4.43839e-05 4.3767e-05 4.30939e-05 4.23633e-05 4.15741e-05 4.07258e-05 3.98186e-05 3.88531e-05 3.78308e-05 3.67536e-05 3.56242e-05 3.44461e-05 3.32231e-05 3.19599e-05 3.06617e-05 2.9334e-05 2.7983e-05 2.66151e-05 2.5237e-05 2.38554e-05 2.24772e-05 2.11093e-05 1.97583e-05 1.84307e-05 1.71324e-05 1.58693e-05 1.46463e-05 1.34681e-05 1.23388e-05 1.12616e-05 1.02393e-05 9.27379e-06 8.36656e-06 7.51828e-06 6.72906e-06 5.99843e-06 5.3254e-06 4.7085e-06 4.14585e-06 3.63523e-06 3.17413e-06 2.75981e-06 2.38937e-06 2.0598e-06 1.76805e-06 1.51106e-06 1.2858e-06 1.08935e-06 9.18856e-07 7.7163e-07 6.45125e-07 5.36961e-07 4.44939e-07 3.67036e-07 3.01413e-07 2.46407e-07 2.00528e-07 1.62452e-07 1.31008e-07 1.05168e-07 8.40395e-08 6.68481e-08 5.29294e-08 4.1716e-08 3.27266e-08 2.55558e-08 1.98638e-08 1.53678e-08 1.18341e-08 9.0701e-09 6.91876e-09 5.25223e-09 3.96723e-09 2.98077e-09 2.22644e-09 1.65134e-09 1.21349e-09 8.79574e-10 6.23118e-10 4.22908e-10 2.6167e-10 1.24929e-10 0 
0 1.67332e-10 3.50474e-10 5.66405e-10 8.34498e-10 1.17787e-09 1.6249e-09 2.21101e-09 2.98077e-09 3.99035e-09 5.31047e-09 7.02995e-09 9.25979e-09 1.21381e-08 1.58357e-08 2.05628e-08 2.65765e-08 3.41894e-08 4.37796e-08 5.58009e-08 7.07954e-08 8.94061e-08 1.12391e-07 1.40639e-07 1.75182e-07 2.17215e-07 2.68111e-07 3.29431e-07 4.02947e-07 4.90649e-07 5.94756e-07 7.17725e-07 8.62255e-07 1.03129e-06 1.22799e-06 1.45578e-06 1.71824e-06 2.01916e-06 2.36246e-06 2.75218e-06 3.1924e-06 3.6872e-06 4.24059e-06 4.85644e-06 5.5384e-06 6.28982e-06 7.11368e-06 8.01248e-06 8.98817e-06 1.00421e-05 1.11748e-05 1.23863e-05 1.36754e-05 1.50405e-05 1.64788e-05 1.79868e-05 1.95599e-05 2.11928e-05 2.28793e-05 2.46127e-05 2.63853e-05 2.81891e-05 3.00154e-05 3.18555e-05 3.37001e-05 3.55401e-05 3.73665e-05 3.91702e-05 4.09428e-05 4.26762e-05 4.43628e-05 4.59957e-05 4.75688e-05 4.90767e-05 5.0515e-05 5.18801e-05 5.31693e-05 5.43807e-05 5.55135e-05 5.65674e-05 5.75431e-05 5.84419e-05 5.92657e-05 6.00171e-05 6.06991e-05 6.1315e-05 6.18683e-05 6.23631e-05 6.28034e-05 6.31931e-05 6.35364e-05 6.38373e-05 6.40998e-05 6.43275e-05 6.45243e-05 6.46933e-05 6.48378e-05 6.49608e-05 6.50649e-05 6.51526e-05 6.52261e-05 6.52874e-05 6.53383e-05 6.53804e-05 6.54149e-05 6.54432e-05 6.54661e-05 6.54848e-05 6.54997e-05 6.55118e-05 6.55214e-05 6.5529e-05 6.5535e-05 6.55397e-05 6.55434e-05 6.55463e-05 6.55485e-05 6.55502e-05 6.55515e-05 6.55525e-05 6.55533e-05 6.55539e-05 6.55543e-05 6.55546e-05 6.55548e-05 6.5555e-05 6.55551e-05 6.55551e-05 6.55551e-05 6.55551e-05 6.5555e-05 6.55548e-05 6.55546e-05 6.55543e-05 6.55539e-05 6.55533e-05 6.55525e-05 6.55515e-05 6.55502e-05 6.55485e-05 6.55463e-05 6.55434e-05 6.55397e-05 6.5535e-05 6.5529e-05 6.55214e-05 6.55118e-05 6.54997e-05 6.54848e-05 6.54661e-05 6.54432e-05 6.54149e-05 6.53804e-05 6.53383e-05 6.52874e-05 6.52261e-05 6.51526e-05 6.50649e-05 6.49608e-05 6.48378e-05 6.46933e-05 6.45243e-05 6.43275e-05 6.40998e-05 6.38373e-05 6.35364e-05 6.31931e-05 6.28034e-05 6.23631e-05 6.18683e-05 6.1315e-05 6.06991e-05 6.00171e-05 5.92657e-05 5.84419e-05 5.75431e-05 5.65674e-05 5.55135e-05 5.43807e-05 5.31693e-05 5.18801e-05 5.0515e-05 4.90767e-05 4.75688e-05 4.59957e-05 4.43628e-05 4.26762e-05 4.09428e-05 3.91702e-05 3.73665e-05 3.55401e-05 3.37001e-05 3.18555e-05 3.00154e-05 2.81891e-05 2.63853e-05 2.46127e-05 2.28793e-05 2.11928e-05 1.95599e-05 1.79868e-05 1.64788e-05 1.50405e-05 1.36754e-05 1.23863e-05 1.11748e-05 1.00421e-05 8.98817e-06 8.01248e-06 7.11368e-06 6.28982e-06 5.5384e-06 4.85644e-06 4.24059e-06 3.6872e-06 3.1924e-06 2.75218e-06 2.36246e-06 2.01916e-06 1.71824e-06 1.45578e-06 1.22799e-06 1.03129e-06 8.62255e-07 7.17725e-07 5.94756e-07 4.90649e-07 4.02947e-07 3.29431e-07 2.68111e-07 2.17215e-07 1.75182e-07 1.40639e-07 1.12391e-07 8.94061e-08 7.07954e-08 5.58009e-08 4.37796e-08 3.41894e-08 2.65765e-08 2.05628e-08 1.58357e-08 1.21381e-08 9.25979e-09 7.02995e-09 5.31047e-09 3.99035e-09 2.98077e-09 2.21101e-09 1.6249e-09 1.17787e-09 8.34498e-10 5.66405e-10 3.50474e-10 1.67332e-10 0 