<?xml version="1.0"?>
<VTKFile type="ImageData" version="0.1" byte_order="LittleEndian">
  <ImageData WholeExtent="0 255 0 255 0 0" Origin="0 0 0" Spacing="1 1 1">
  <Piece Extent="0 255 0 255 0 0">
    <PointData>
      <DataArray type="Float32" Name="scalar_data" format="ascii" >0 0 0 0 0 0 0 0 0 0 0 0 0 0 0 0 0 0 0 0 0 0 0 0 0 0 0 0 0 0 0 0 0 0 0 0 0 0 0 0 0 0 0 0 0 0 0 0 0 0 0 0 0 0 0 0 0 0 0 0 0 0 0 0 0 0 0 0 0 0 0 0 0 0 0 0 0 0 0 0 0 0 0 0 0 0 0 0 0 0 0 0 0 0 0 0 0 0 0 0 0 0 0 0 0 0 0 0 0 0 0 0 0 0 0 0 0 0 0 0 0 0 0 0 0 0 0 0 0 0 0 0 0 0 0 0 0 0 0 0 0 0 0 0 0 0 0 0 0 0 0 0 0 0 0 0 0 0 0 0 0 0 0 0 0 0 0 0 0 0 0 0 0 0 0 0 0 0 0 0 0 0 0 0 0 0 0 0 0 0 0 0 0 0 0 0 0 0 0 0 0 0 0 0 0 0 0 0 0 0 0 0 0 0 0 0 0 0 0 0 0 0 0 0 0 0 0 0 0 0 0 0 0 0 0 0 0 0 0 0 0 0 0 0 0 0 0 0 0 0 0 0 0 0 0 0 
0 8.81716e-12 1.84497e-11 2.97717e-11 4.37778e-11 6.16505e-11 8.48362e-11 1.15134e-10 1.54798e-10 2.06663e-10 2.74284e-10 3.62112e-10 4.75697e-10 6.21921e-10 8.09276e-10 1.04818e-09 1.35135e-09 1.73421e-09 2.21533e-09 2.81701e-09 3.56578e-09 4.49304e-09 5.63573e-09 7.03703e-09 8.74705e-09 1.08236e-08 1.3333e-08 1.63505e-08 1.99613e-08 2.42609e-08 2.93557e-08 3.53631e-08 4.24119e-08 5.06423e-08 6.0205e-08 7.12615e-08 8.39824e-08 9.85465e-08 1.15139e-07 1.3395e-07 1.55172e-07 1.78996e-07 2.05609e-07 2.35193e-07 2.67918e-07 3.03941e-07 3.43397e-07 3.86403e-07 4.33049e-07 4.83393e-07 5.37462e-07 5.95247e-07 6.567e-07 7.21733e-07 7.90217e-07 8.6198e-07 9.36811e-07 1.01446e-06 1.09463e-06 1.177e-06 1.26122e-06 1.3469e-06 1.43364e-06 1.52102e-06 1.60863e-06 1.69601e-06 1.78275e-06 1.86844e-06 1.95265e-06 2.03502e-06 2.1152e-06 2.19284e-06 2.26767e-06 2.33943e-06 2.40792e-06 2.47295e-06 2.5344e-06 2.59219e-06 2.64626e-06 2.6966e-06 2.74325e-06 2.78625e-06 2.82571e-06 2.86173e-06 2.89446e-06 2.92404e-06 2.95066e-06 2.97448e-06 2.9957e-06 3.01451e-06 3.0311e-06 3.04567e-06 3.05839e-06 3.06945e-06 3.07901e-06 3.08724e-06 3.09429e-06 3.1003e-06 3.10539e-06 3.10969e-06 3.1133e-06 3.11632e-06 3.11883e-06 3.1209e-06 3.12261e-06 3.12402e-06 3.12516e-06 3.12609e-06 3.12683e-06 3.12744e-06 3.12792e-06 3.1283e-06 3.1286e-06 3.12884e-06 3.12903e-06 3.12918e-06 3.12929e-06 3.12938e-06 3.12944e-06 3.1295e-06 3.12953e-06 3.12956e-06 3.12959e-06 3.1296e-06 3.12961e-06 3.12962e-06 3.12963e-06 3.12963e-06 3.12963e-06 3.12963e-06 3.12962e-06 3.12961e-06 3.1296e-06 3.12959e-06 3.12956e-06 3.12953e-06 3.1295e-06 3.12944e-06 3.12938e-06 3.12929e-06 3.12918e-06 3.12903e-06 3.12884e-06 3.1286e-06 3.1283e-06 3.12792e-06 3.12744e-06 3.12683e-06 3.12609e-06 3.12516e-06 3.12402e-06 3.12261e-06 3.1209e-06 3.11883e-06 3.11632e-06 3.1133e-06 3.10969e-06 3.10539e-06 3.1003e-06 3.09429e-06 3.08724e-06 3.07901e-06 3.06945e-06 3.05839e-06 3.04567e-06 3.0311e-06 3.01451e-06 2.9957e-06 2.97448e-06 2.95066e-06 2.92404e-06 2.89446e-06 2.86173e-06 2.82571e-06 2.78625e-06 2.74325e-06 2.6966e-06 2.64626e-06 2.59219e-06 2.5344e-06 2.47295e-06 2.40792e-06 2.33943e-06 2.26767e-06 2.19284e-06 2.1152e-06 2.03502e-06 1.95265e-06 1.86844e-06 1.78275e-06 1.69601e-06 1.60863e-06 1.52102e-06 1.43364e-06 1.3469e-06 1.26122e-06 1.177e-06 1.09463e-06 1.01446e-06 9.36811e-07 8.6198e-07 7.90217e-07 7.21733e-07 6.567e-07 5.95247e-07 5.37462e-07 4.83393e-07 4.33049e-07 3.86403e-07 3.43397e-07 3.03941e-07 2.67918e-07 2.35193e-07 2.05609e-07 1.78996e-07 1.55172e-07 1.3395e-07 1.15139e-07 9.85465e-08 8.39824e-08 7.12615e-08 6.0205e-08 5.06423e-08 4.24119e-08 3.53631e-08 2.93557e-08 2.42609e-08 1.99613e-08 1.63505e-08 1.3333e-08 1.08236e-08 8.74705e-09 7.03703e-09 5.63573e-09 4.49304e-09 3.56578e-09 2.81701e-09 2.21533e-09 1.73421e-09 1.35135e-09 1.04818e-09 8.09276e-10 6.21921e-10 4.75697e-10 3.62112e-10 2.74284e-10 2.06663e-10 1.54798e-10 1.15134e-10 8.48362e-11 6.16505e-11 4.37778e-11 2.97717e-11 1.84497e-11 8.81716e-12 0 
0 1.84497e-11 3.86051e-11 6.2295e-11 9.15998e-11 1.28993e-10 1.77501e-10 2.40885e-10 3.23863e-10 4.32359e-10 5.73812e-10 7.57532e-10 9.95122e-10 1.30098e-09 1.69285e-09 2.19254e-09 2.82662e-09 3.62735e-09 4.63358e-09 5.89191e-09 7.45781e-09 9.39695e-09 1.17866e-08 1.47169e-08 1.82928e-08 2.2635e-08 2.78822e-08 3.41918e-08 4.17418e-08 5.07319e-08 6.13844e-08 7.39449e-08 8.86826e-08 1.0589e-07 1.25883e-07 1.48999e-07 1.75594e-07 2.06043e-07 2.40731e-07 2.80058e-07 3.24423e-07 3.74226e-07 4.29862e-07 4.91707e-07 5.60117e-07 6.35419e-07 7.17899e-07 8.07799e-07 9.05305e-07 1.01054e-06 1.12357e-06 1.24436e-06 1.37281e-06 1.50875e-06 1.6519e-06 1.80191e-06 1.95832e-06 2.12062e-06 2.2882e-06 2.46037e-06 2.63641e-06 2.8155e-06 2.99681e-06 3.17947e-06 3.36258e-06 3.54523e-06 3.72654e-06 3.90564e-06 4.08167e-06 4.25385e-06 4.42143e-06 4.58373e-06 4.74014e-06 4.89015e-06 5.0333e-06 5.16924e-06 5.29769e-06 5.41848e-06 5.5315e-06 5.63674e-06 5.73425e-06 5.82415e-06 5.90663e-06 5.98193e-06 6.05034e-06 6.11218e-06 6.16782e-06 6.21762e-06 6.26199e-06 6.30132e-06 6.336e-06 6.36645e-06 6.39305e-06 6.41616e-06 6.43616e-06 6.45337e-06 6.4681e-06 6.48066e-06 6.49132e-06 6.50031e-06 6.50786e-06 6.51416e-06 6.51941e-06 6.52375e-06 6.52733e-06 6.53026e-06 6.53265e-06 6.53459e-06 6.53615e-06 6.53741e-06 6.53842e-06 6.53922e-06 6.53985e-06 6.54035e-06 6.54075e-06 6.54105e-06 6.54129e-06 6.54147e-06 6.54161e-06 6.54172e-06 6.5418e-06 6.54186e-06 6.54191e-06 6.54194e-06 6.54197e-06 6.54198e-06 6.54199e-06 6.542e-06 6.542e-06 6.54199e-06 6.54198e-06 6.54197e-06 6.54194e-06 6.54191e-06 6.54186e-06 6.5418e-06 6.54172e-06 6.54161e-06 6.54147e-06 6.54129e-06 6.54105e-06 6.54075e-06 6.54035e-06 6.53985e-06 6.53922e-06 6.53842e-06 6.53741e-06 6.53615e-06 6.53459e-06 6.53265e-06 6.53026e-06 6.52733e-06 6.52375e-06 6.51941e-06 6.51416e-06 6.50786e-06 6.50031e-06 6.49132e-06 6.48066e-06 6.4681e-06 6.45337e-06 6.43616e-06 6.41616e-06 6.39305e-06 6.36645e-06 6.336e-06 6.30132e-06 6.26199e-06 6.21762e-06 6.16782e-06 6.11218e-06 6.05034e-06 5.98193e-06 5.90663e-06 5.82415e-06 5.73425e-06 5.63674e-06 5.5315e-06 5.41848e-06 5.29769e-06 5.16924e-06 5.0333e-06 4.89015e-06 4.74014e-06 4.58373e-06 4.42143e-06 4.25385e-06 4.08167e-06 3.90564e-06 3.72654e-06 3.54523e-06 3.36258e-06 3.17947e-06 2.99681e-06 2.8155e-06 2.63641e-06 2.46037e-06 2.2882e-06 2.12062e-06 1.95832e-06 1.80191e-06 1.6519e-06 1.50875e-06 1.37281e-06 1.24436e-06 1.12357e-06 1.01054e-06 9.05305e-07 8.07799e-07 7.17899e-07 6.35419e-07 5.60117e-07 4.91707e-07 4.29862e-07 3.74226e-07 3.24423e-07 2.80058e-07 2.40731e-07 2.06043e-07 1.75594e-07 1.48999e-07 1.25883e-07 1.0589e-07 8.86826e-08 7.39449e-08 6.13844e-08 5.07319e-08 4.17418e-08 3.41918e-08 2.78822e-08 2.2635e-08 1.82928e-08 1.47169e-08 1.17866e-08 9.39695e-09 7.45781e-09 5.89191e-09 4.63358e-09 3.62735e-09 2.82662e-09 2.19254e-09 1.69285e-09 1.30098e-09 9.95122e-10 7.57532e-10 5.73812e-10 4.32359e-10 3.23863e-10 2.40885e-10 1.77501e-10 1.28993e-10 9.15998e-11 6.2295e-11 3.86051e-11 1.84497e-11 0 
0 2.97717e-11 6.22949e-11 1.00519e-10 1.47801e-10 2.0813e-10 2.86384e-10 3.88634e-10 5.22484e-10 6.97488e-10 9.25641e-10 1.22195e-09 1.60513e-09 2.09838e-09 2.73034e-09 3.53612e-09 4.55858e-09 5.8497e-09 7.47213e-09 9.50094e-09 1.20256e-08 1.51518e-08 1.90042e-08 2.37282e-08 2.94926e-08 3.64922e-08 4.49502e-08 5.51204e-08 6.72897e-08 8.17797e-08 9.89486e-08 1.19192e-07 1.42944e-07 1.70676e-07 2.02896e-07 2.40147e-07 2.83005e-07 3.3207e-07 3.87968e-07 4.51336e-07 5.22823e-07 6.03072e-07 6.92716e-07 7.92363e-07 9.02587e-07 1.02391e-06 1.1568e-06 1.30164e-06 1.45874e-06 1.62828e-06 1.81037e-06 2.00497e-06 2.21192e-06 2.43092e-06 2.66154e-06 2.9032e-06 3.15518e-06 3.41664e-06 3.6866e-06 3.96397e-06 4.24755e-06 4.53607e-06 4.82815e-06 5.1224e-06 5.41738e-06 5.71162e-06 6.00371e-06 6.29222e-06 6.5758e-06 6.85317e-06 7.12314e-06 7.3846e-06 7.63658e-06 7.87824e-06 8.10885e-06 8.32786e-06 8.5348e-06 8.7294e-06 8.91149e-06 9.08104e-06 9.23813e-06 9.38297e-06 9.51586e-06 9.63719e-06 9.74741e-06 9.84706e-06 9.9367e-06 1.0017e-05 1.00884e-05 1.01518e-05 1.02077e-05 1.02568e-05 1.02996e-05 1.03369e-05 1.03691e-05 1.03968e-05 1.04206e-05 1.04408e-05 1.0458e-05 1.04725e-05 1.04847e-05 1.04948e-05 1.05033e-05 1.05103e-05 1.0516e-05 1.05208e-05 1.05246e-05 1.05278e-05 1.05303e-05 1.05323e-05 1.05339e-05 1.05352e-05 1.05362e-05 1.0537e-05 1.05377e-05 1.05382e-05 1.05386e-05 1.05388e-05 1.05391e-05 1.05393e-05 1.05394e-05 1.05395e-05 1.05396e-05 1.05396e-05 1.05396e-05 1.05397e-05 1.05397e-05 1.05397e-05 1.05397e-05 1.05397e-05 1.05397e-05 1.05396e-05 1.05396e-05 1.05396e-05 1.05395e-05 1.05394e-05 1.05393e-05 1.05391e-05 1.05388e-05 1.05386e-05 1.05382e-05 1.05377e-05 1.0537e-05 1.05362e-05 1.05352e-05 1.05339e-05 1.05323e-05 1.05303e-05 1.05278e-05 1.05246e-05 1.05208e-05 1.0516e-05 1.05103e-05 1.05033e-05 1.04948e-05 1.04847e-05 1.04725e-05 1.0458e-05 1.04408e-05 1.04206e-05 1.03968e-05 1.03691e-05 1.03369e-05 1.02996e-05 1.02568e-05 1.02077e-05 1.01518e-05 1.00884e-05 1.0017e-05 9.9367e-06 9.84706e-06 9.74741e-06 9.63719e-06 9.51586e-06 9.38297e-06 9.23813e-06 9.08104e-06 8.91149e-06 8.7294e-06 8.5348e-06 8.32786e-06 8.10885e-06 7.87824e-06 7.63658e-06 7.3846e-06 7.12314e-06 6.85317e-06 6.5758e-06 6.29222e-06 6.00371e-06 5.71162e-06 5.41738e-06 5.1224e-06 4.82815e-06 4.53607e-06 4.24755e-06 3.96397e-06 3.6866e-06 3.41664e-06 3.15518e-06 2.9032e-06 2.66154e-06 2.43092e-06 2.21192e-06 2.00497e-06 1.81037e-06 1.62828e-06 1.45874e-06 1.30164e-06 1.1568e-06 1.02391e-06 9.02587e-07 7.92363e-07 6.92716e-07 6.03072e-07 5.22823e-07 4.51336e-07 3.87968e-07 3.3207e-07 2.83005e-07 2.40147e-07 2.02896e-07 1.70676e-07 1.42944e-07 1.19192e-07 9.89486e-08 8.17797e-08 6.72897e-08 5.51204e-08 4.49502e-08 3.64922e-08 2.94926e-08 2.37282e-08 1.90042e-08 1.51518e-08 1.20256e-08 9.50094e-09 7.47213e-09 5.8497e-09 4.55858e-09 3.53612e-09 2.73034e-09 2.09838e-09 1.60513e-09 1.22195e-09 9.25641e-10 6.97488e-10 5.22484e-10 3.88634e-10 2.86384e-10 2.0813e-10 1.47801e-10 1.00519e-10 6.22949e-11 2.97717e-11 0 
0 4.37778e-11 9.15998e-11 1.47801e-10 2.17314e-10 3.06001e-10 4.21032e-10 5.71324e-10 7.6805e-10 1.02525e-09 1.36053e-09 1.79596e-09 2.359e-09 3.08374e-09 4.01222e-09 5.19604e-09 6.69811e-09 8.59476e-09 1.0978e-08 1.3958e-08 1.76661e-08 2.22577e-08 2.79155e-08 3.4853e-08 4.3318e-08 5.35966e-08 6.60162e-08 8.09494e-08 9.88172e-08 1.20092e-07 1.45298e-07 1.75018e-07 2.09887e-07 2.50597e-07 2.97895e-07 3.52576e-07 4.15485e-07 4.87504e-07 5.69549e-07 6.62558e-07 7.67479e-07 8.85257e-07 1.01682e-06 1.16306e-06 1.32482e-06 1.50287e-06 1.69788e-06 1.91043e-06 2.14096e-06 2.38976e-06 2.65695e-06 2.9425e-06 3.24617e-06 3.56751e-06 3.9059e-06 4.26049e-06 4.63022e-06 5.01385e-06 5.40996e-06 5.81693e-06 6.23302e-06 6.65634e-06 7.0849e-06 7.51663e-06 7.94943e-06 8.38116e-06 8.80972e-06 9.23304e-06 9.64913e-06 1.00561e-05 1.04522e-05 1.08358e-05 1.12056e-05 1.15602e-05 1.18985e-05 1.22199e-05 1.25236e-05 1.28091e-05 1.30763e-05 1.33251e-05 1.35556e-05 1.37682e-05 1.39632e-05 1.41412e-05 1.4303e-05 1.44492e-05 1.45808e-05 1.46986e-05 1.48035e-05 1.48965e-05 1.49786e-05 1.50506e-05 1.51135e-05 1.51682e-05 1.52155e-05 1.52562e-05 1.5291e-05 1.53208e-05 1.5346e-05 1.53672e-05 1.53851e-05 1.54e-05 1.54125e-05 1.54227e-05 1.54312e-05 1.54381e-05 1.54438e-05 1.54484e-05 1.54521e-05 1.54551e-05 1.54575e-05 1.54594e-05 1.54609e-05 1.54621e-05 1.5463e-05 1.54637e-05 1.54643e-05 1.54647e-05 1.5465e-05 1.54653e-05 1.54655e-05 1.54656e-05 1.54657e-05 1.54658e-05 1.54659e-05 1.54659e-05 1.54659e-05 1.54659e-05 1.54659e-05 1.54659e-05 1.54659e-05 1.54659e-05 1.54658e-05 1.54657e-05 1.54656e-05 1.54655e-05 1.54653e-05 1.5465e-05 1.54647e-05 1.54643e-05 1.54637e-05 1.5463e-05 1.54621e-05 1.54609e-05 1.54594e-05 1.54575e-05 1.54551e-05 1.54521e-05 1.54484e-05 1.54438e-05 1.54381e-05 1.54312e-05 1.54227e-05 1.54125e-05 1.54e-05 1.53851e-05 1.53672e-05 1.5346e-05 1.53208e-05 1.5291e-05 1.52562e-05 1.52155e-05 1.51682e-05 1.51135e-05 1.50506e-05 1.49786e-05 1.48965e-05 1.48035e-05 1.46986e-05 1.45808e-05 1.44492e-05 1.4303e-05 1.41412e-05 1.39632e-05 1.37682e-05 1.35556e-05 1.33251e-05 1.30763e-05 1.28091e-05 1.25236e-05 1.22199e-05 1.18985e-05 1.15602e-05 1.12056e-05 1.08358e-05 1.04522e-05 1.00561e-05 9.64913e-06 9.23304e-06 8.80972e-06 8.38116e-06 7.94943e-06 7.51663e-06 7.0849e-06 6.65634e-06 6.23302e-06 5.81693e-06 5.40996e-06 5.01385e-06 4.63022e-06 4.26049e-06 3.9059e-06 3.56751e-06 3.24617e-06 2.9425e-06 2.65695e-06 2.38976e-06 2.14096e-06 1.91043e-06 1.69788e-06 1.50287e-06 1.32482e-06 1.16306e-06 1.01682e-06 8.85257e-07 7.67479e-07 6.62558e-07 5.69549e-07 4.87504e-07 4.15485e-07 3.52576e-07 2.97895e-07 2.50597e-07 2.09887e-07 1.75018e-07 1.45298e-07 1.20092e-07 9.88172e-08 8.09494e-08 6.60162e-08 5.35966e-08 4.3318e-08 3.4853e-08 2.79155e-08 2.22577e-08 1.76661e-08 1.3958e-08 1.0978e-08 8.59476e-09 6.69811e-09 5.19604e-09 4.01222e-09 3.08374e-09 2.359e-09 1.79596e-09 1.36053e-09 1.02525e-09 7.6805e-10 5.71324e-10 4.21032e-10 3.06001e-10 2.17314e-10 1.47801e-10 9.15998e-11 4.37778e-11 0 
0 6.16505e-11 1.28993e-10 2.0813e-10 3.06001e-10 4.30857e-10 5.92787e-10 8.04336e-10 1.08122e-09 1.4432e-09 1.91503e-09 2.52775e-09 3.32e-09 4.33969e-09 5.64597e-09 7.31137e-09 9.42437e-09 1.20923e-08 1.54444e-08 1.96357e-08 2.48508e-08 3.13079e-08 3.92641e-08 4.90193e-08 6.0922e-08 7.53739e-08 9.28352e-08 1.1383e-07 1.38948e-07 1.68855e-07 2.04288e-07 2.46063e-07 2.95074e-07 3.52293e-07 4.18768e-07 4.95618e-07 5.84027e-07 6.85237e-07 8.00532e-07 9.3123e-07 1.07866e-06 1.24416e-06 1.42901e-06 1.63449e-06 1.86177e-06 2.11192e-06 2.38591e-06 2.68452e-06 3.00839e-06 3.35791e-06 3.73328e-06 4.13443e-06 4.56101e-06 5.01243e-06 5.48778e-06 5.98588e-06 6.50525e-06 7.04415e-06 7.60055e-06 8.17222e-06 8.75669e-06 9.35132e-06 9.9533e-06 1.05597e-05 1.11677e-05 1.17741e-05 1.23761e-05 1.29707e-05 1.35552e-05 1.41269e-05 1.46833e-05 1.52222e-05 1.57415e-05 1.62396e-05 1.6715e-05 1.71664e-05 1.7593e-05 1.79941e-05 1.83695e-05 1.8719e-05 1.90429e-05 1.93415e-05 1.96155e-05 1.98656e-05 2.00929e-05 2.02984e-05 2.04833e-05 2.06488e-05 2.07962e-05 2.09269e-05 2.10422e-05 2.11434e-05 2.12318e-05 2.13086e-05 2.13751e-05 2.14323e-05 2.14814e-05 2.15231e-05 2.15586e-05 2.15885e-05 2.16136e-05 2.16346e-05 2.1652e-05 2.16665e-05 2.16784e-05 2.16882e-05 2.16961e-05 2.17026e-05 2.17078e-05 2.1712e-05 2.17153e-05 2.1718e-05 2.17201e-05 2.17218e-05 2.17231e-05 2.17241e-05 2.17249e-05 2.17255e-05 2.1726e-05 2.17263e-05 2.17266e-05 2.17268e-05 2.1727e-05 2.17271e-05 2.17271e-05 2.17272e-05 2.17272e-05 2.17273e-05 2.17273e-05 2.17272e-05 2.17272e-05 2.17271e-05 2.17271e-05 2.1727e-05 2.17268e-05 2.17266e-05 2.17263e-05 2.1726e-05 2.17255e-05 2.17249e-05 2.17241e-05 2.17231e-05 2.17218e-05 2.17201e-05 2.1718e-05 2.17153e-05 2.1712e-05 2.17078e-05 2.17026e-05 2.16961e-05 2.16882e-05 2.16784e-05 2.16665e-05 2.1652e-05 2.16346e-05 2.16136e-05 2.15885e-05 2.15586e-05 2.15231e-05 2.14814e-05 2.14323e-05 2.13751e-05 2.13086e-05 2.12318e-05 2.11434e-05 2.10422e-05 2.09269e-05 2.07962e-05 2.06488e-05 2.04833e-05 2.02984e-05 2.00929e-05 1.98656e-05 1.96155e-05 1.93415e-05 1.90429e-05 1.8719e-05 1.83695e-05 1.79941e-05 1.7593e-05 1.71664e-05 1.6715e-05 1.62396e-05 1.57415e-05 1.52222e-05 1.46833e-05 1.41269e-05 1.35552e-05 1.29707e-05 1.23761e-05 1.17741e-05 1.11677e-05 1.05597e-05 9.9533e-06 9.35132e-06 8.75669e-06 8.17222e-06 7.60055e-06 7.04415e-06 6.50525e-06 5.98588e-06 5.48778e-06 5.01243e-06 4.56101e-06 4.13443e-06 3.73328e-06 3.35791e-06 3.00839e-06 2.68452e-06 2.38591e-06 2.11192e-06 1.86177e-06 1.63449e-06 1.42901e-06 1.24416e-06 1.07866e-06 9.3123e-07 8.00532e-07 6.85237e-07 5.84027e-07 4.95618e-07 4.18768e-07 3.52293e-07 2.95074e-07 2.46063e-07 2.04288e-07 1.68855e-07 1.38948e-07 1.1383e-07 9.28352e-08 7.53739e-08 6.0922e-08 4.90193e-08 3.92641e-08 3.13079e-08 2.48508e-08 1.96357e-08 1.54444e-08 1.20923e-08 9.42437e-09 7.31137e-09 5.64597e-09 4.33969e-09 3.32e-09 2.52775e-09 1.91503e-09 1.4432e-09 1.08122e-09 8.04336e-10 5.92787e-10 4.30857e-10 3.06001e-10 2.0813e-10 1.28993e-10 6.16505e-11 0 
0 8.48362e-11 1.77501e-10 2.86384e-10 4.21032e-10 5.92787e-10 8.15521e-10 1.10648e-09 1.48727e-09 1.98503e-09 2.63382e-09 3.47626e-09 4.56545e-09 5.96725e-09 7.76289e-09 1.0052e-08 1.29562e-08 1.66228e-08 2.12294e-08 2.6989e-08 3.41549e-08 4.30271e-08 5.39581e-08 6.73602e-08 8.37116e-08 1.03564e-07 1.27549e-07 1.56385e-07 1.90885e-07 2.31959e-07 2.8062e-07 3.37988e-07 4.0529e-07 4.8386e-07 5.75136e-07 6.80654e-07 8.02038e-07 9.40991e-07 1.09928e-06 1.2787e-06 1.48109e-06 1.70827e-06 1.96203e-06 2.24408e-06 2.55604e-06 2.89939e-06 3.27545e-06 3.6853e-06 4.12979e-06 4.6095e-06 5.12466e-06 5.67518e-06 6.26062e-06 6.88012e-06 7.53246e-06 8.216e-06 8.92872e-06 9.66824e-06 1.04318e-05 1.12162e-05 1.20183e-05 1.28342e-05 1.36603e-05 1.44925e-05 1.53267e-05 1.61589e-05 1.69849e-05 1.78009e-05 1.86029e-05 1.93874e-05 2.0151e-05 2.08905e-05 2.16032e-05 2.22867e-05 2.29391e-05 2.35586e-05 2.4144e-05 2.46945e-05 2.52097e-05 2.56894e-05 2.61339e-05 2.65437e-05 2.69198e-05 2.72632e-05 2.75751e-05 2.78572e-05 2.81109e-05 2.83381e-05 2.85405e-05 2.87199e-05 2.88782e-05 2.90172e-05 2.91385e-05 2.92441e-05 2.93353e-05 2.94139e-05 2.94812e-05 2.95386e-05 2.95872e-05 2.96283e-05 2.96628e-05 2.96916e-05 2.97156e-05 2.97355e-05 2.97518e-05 2.97652e-05 2.97762e-05 2.9785e-05 2.97922e-05 2.9798e-05 2.98026e-05 2.98062e-05 2.98091e-05 2.98114e-05 2.98132e-05 2.98146e-05 2.98157e-05 2.98166e-05 2.98172e-05 2.98177e-05 2.98181e-05 2.98183e-05 2.98186e-05 2.98187e-05 2.98188e-05 2.98189e-05 2.98189e-05 2.9819e-05 2.9819e-05 2.98189e-05 2.98189e-05 2.98188e-05 2.98187e-05 2.98186e-05 2.98183e-05 2.98181e-05 2.98177e-05 2.98172e-05 2.98166e-05 2.98157e-05 2.98146e-05 2.98132e-05 2.98114e-05 2.98091e-05 2.98062e-05 2.98026e-05 2.9798e-05 2.97922e-05 2.9785e-05 2.97762e-05 2.97652e-05 2.97518e-05 2.97355e-05 2.97156e-05 2.96916e-05 2.96628e-05 2.96283e-05 2.95872e-05 2.95386e-05 2.94812e-05 2.94139e-05 2.93353e-05 2.92441e-05 2.91385e-05 2.90172e-05 2.88782e-05 2.87199e-05 2.85405e-05 2.83381e-05 2.81109e-05 2.78572e-05 2.75751e-05 2.72632e-05 2.69198e-05 2.65437e-05 2.61339e-05 2.56894e-05 2.52097e-05 2.46945e-05 2.4144e-05 2.35586e-05 2.29391e-05 2.22867e-05 2.16032e-05 2.08905e-05 2.0151e-05 1.93874e-05 1.86029e-05 1.78009e-05 1.69849e-05 1.61589e-05 1.53267e-05 1.44925e-05 1.36603e-05 1.28342e-05 1.20183e-05 1.12162e-05 1.04318e-05 9.66824e-06 8.92872e-06 8.216e-06 7.53246e-06 6.88012e-06 6.26062e-06 5.67518e-06 5.12466e-06 4.6095e-06 4.12979e-06 3.6853e-06 3.27545e-06 2.89939e-06 2.55604e-06 2.24408e-06 1.96203e-06 1.70827e-06 1.48109e-06 1.2787e-06 1.09928e-06 9.40991e-07 8.02038e-07 6.80654e-07 5.75136e-07 4.8386e-07 4.0529e-07 3.37988e-07 2.8062e-07 2.31959e-07 1.90885e-07 1.56385e-07 1.27549e-07 1.03564e-07 8.37116e-08 6.73602e-08 5.39581e-08 4.30271e-08 3.41549e-08 2.6989e-08 2.12294e-08 1.66228e-08 1.29562e-08 1.0052e-08 7.76289e-09 5.96725e-09 4.56545e-09 3.47626e-09 2.63382e-09 1.98503e-09 1.48727e-09 1.10648e-09 8.15521e-10 5.92787e-10 4.21032e-10 2.86384e-10 1.77501e-10 8.48362e-11 0 
0 1.15134e-10 2.40885e-10 3.88634e-10 5.71324e-10 8.04336e-10 1.10648e-09 1.50113e-09 2.01758e-09 2.69261e-09 3.5724e-09 4.71468e-09 6.19142e-09 8.09185e-09 1.0526e-08 1.3629e-08 1.75653e-08 2.25347e-08 2.87778e-08 3.65828e-08 4.62929e-08 5.83144e-08 7.31246e-08 9.12816e-08 1.13433e-07 1.40326e-07 1.72815e-07 2.11873e-07 2.586e-07 3.14228e-07 3.80128e-07 4.57816e-07 5.48953e-07 6.55343e-07 7.78932e-07 9.21798e-07 1.08614e-06 1.27426e-06 1.48855e-06 1.73144e-06 2.00542e-06 2.31294e-06 2.65642e-06 3.03819e-06 3.46043e-06 3.92516e-06 4.43413e-06 4.98882e-06 5.59039e-06 6.23959e-06 6.93677e-06 7.68179e-06 8.47404e-06 9.31237e-06 1.01951e-05 1.11201e-05 1.20845e-05 1.30852e-05 1.41184e-05 1.51799e-05 1.62652e-05 1.73693e-05 1.84871e-05 1.96131e-05 2.07419e-05 2.18679e-05 2.29857e-05 2.40898e-05 2.51751e-05 2.62366e-05 2.72698e-05 2.82704e-05 2.92349e-05 3.01599e-05 3.10426e-05 3.18809e-05 3.26732e-05 3.34182e-05 3.41154e-05 3.47646e-05 3.53662e-05 3.59209e-05 3.64298e-05 3.68946e-05 3.73168e-05 3.76986e-05 3.8042e-05 3.83496e-05 3.86235e-05 3.88664e-05 3.90807e-05 3.92688e-05 3.94332e-05 3.95761e-05 3.96996e-05 3.9806e-05 3.98972e-05 3.99749e-05 4.00408e-05 4.00964e-05 4.01431e-05 4.01822e-05 4.02147e-05 4.02416e-05 4.02637e-05 4.02819e-05 4.02967e-05 4.03087e-05 4.03184e-05 4.03262e-05 4.03325e-05 4.03374e-05 4.03414e-05 4.03445e-05 4.03469e-05 4.03488e-05 4.03503e-05 4.03514e-05 4.03523e-05 4.0353e-05 4.03535e-05 4.03538e-05 4.03541e-05 4.03543e-05 4.03545e-05 4.03546e-05 4.03547e-05 4.03547e-05 4.03547e-05 4.03547e-05 4.03546e-05 4.03545e-05 4.03543e-05 4.03541e-05 4.03538e-05 4.03535e-05 4.0353e-05 4.03523e-05 4.03514e-05 4.03503e-05 4.03488e-05 4.03469e-05 4.03445e-05 4.03414e-05 4.03374e-05 4.03325e-05 4.03262e-05 4.03184e-05 4.03087e-05 4.02967e-05 4.02819e-05 4.02637e-05 4.02416e-05 4.02147e-05 4.01822e-05 4.01431e-05 4.00964e-05 4.00408e-05 3.99749e-05 3.98972e-05 3.9806e-05 3.96996e-05 3.95761e-05 3.94332e-05 3.92688e-05 3.90807e-05 3.88664e-05 3.86235e-05 3.83496e-05 3.8042e-05 3.76986e-05 3.73168e-05 3.68946e-05 3.64298e-05 3.59209e-05 3.53662e-05 3.47646e-05 3.41154e-05 3.34182e-05 3.26732e-05 3.18809e-05 3.10426e-05 3.01599e-05 2.92349e-05 2.82704e-05 2.72698e-05 2.62366e-05 2.51751e-05 2.40898e-05 2.29857e-05 2.18679e-05 2.07419e-05 1.96131e-05 1.84871e-05 1.73693e-05 1.62652e-05 1.51799e-05 1.41184e-05 1.30852e-05 1.20845e-05 1.11201e-05 1.01951e-05 9.31237e-06 8.47404e-06 7.68179e-06 6.93677e-06 6.23959e-06 5.59039e-06 4.98882e-06 4.43413e-06 3.92516e-06 3.46043e-06 3.03819e-06 2.65642e-06 2.31294e-06 2.00542e-06 1.73144e-06 1.48855e-06 1.27426e-06 1.08614e-06 9.21798e-07 7.78932e-07 6.55343e-07 5.48953e-07 4.57816e-07 3.80128e-07 3.14228e-07 2.586e-07 2.11873e-07 1.72815e-07 1.40326e-07 1.13433e-07 9.12816e-08 7.31246e-08 5.83144e-08 4.62929e-08 3.65828e-08 2.87778e-08 2.25347e-08 1.75653e-08 1.3629e-08 1.0526e-08 8.09185e-09 6.19142e-09 4.71468e-09 3.5724e-09 2.69261e-09 2.01758e-09 1.50113e-09 1.10648e-09 8.04336e-10 5.71324e-10 3.88634e-10 2.40885e-10 1.15134e-10 0 
0 1.54798e-10 3.23863e-10 5.22484e-10 7.6805e-10 1.08122e-09 1.48727e-09 2.01758e-09 2.71149e-09 3.6184e-09 4.80029e-09 6.33469e-09 8.3182e-09 1.08706e-08 1.41396e-08 1.83064e-08 2.3592e-08 3.02642e-08 3.8646e-08 4.9124e-08 6.21588e-08 7.82951e-08 9.81735e-08 1.22543e-07 1.52271e-07 1.8836e-07 2.31956e-07 2.84365e-07 3.47061e-07 4.21694e-07 5.10106e-07 6.14326e-07 7.36582e-07 8.79293e-07 1.04507e-06 1.23669e-06 1.45711e-06 1.70941e-06 1.99679e-06 2.32253e-06 2.68993e-06 3.1023e-06 3.56288e-06 4.07478e-06 4.64094e-06 5.26404e-06 5.94644e-06 6.69013e-06 7.49664e-06 8.36699e-06 9.30164e-06 1.03004e-05 1.13625e-05 1.24863e-05 1.36697e-05 1.49096e-05 1.62024e-05 1.75438e-05 1.89287e-05 2.03516e-05 2.18064e-05 2.32863e-05 2.47846e-05 2.6294e-05 2.78071e-05 2.93164e-05 3.08147e-05 3.22947e-05 3.37494e-05 3.51723e-05 3.65573e-05 3.78986e-05 3.91915e-05 4.04314e-05 4.16148e-05 4.27386e-05 4.38006e-05 4.47994e-05 4.57341e-05 4.66044e-05 4.74109e-05 4.81546e-05 4.8837e-05 4.94601e-05 5.00263e-05 5.05382e-05 5.09988e-05 5.14111e-05 5.17785e-05 5.21043e-05 5.23916e-05 5.26439e-05 5.28644e-05 5.3056e-05 5.32218e-05 5.33645e-05 5.34867e-05 5.35909e-05 5.36794e-05 5.3754e-05 5.38167e-05 5.38691e-05 5.39127e-05 5.39488e-05 5.39785e-05 5.40029e-05 5.40228e-05 5.40389e-05 5.40519e-05 5.40624e-05 5.40708e-05 5.40775e-05 5.40827e-05 5.40869e-05 5.40902e-05 5.40927e-05 5.40947e-05 5.40962e-05 5.40974e-05 5.40983e-05 5.4099e-05 5.40995e-05 5.40999e-05 5.41002e-05 5.41004e-05 5.41005e-05 5.41006e-05 5.41006e-05 5.41006e-05 5.41006e-05 5.41005e-05 5.41004e-05 5.41002e-05 5.40999e-05 5.40995e-05 5.4099e-05 5.40983e-05 5.40974e-05 5.40962e-05 5.40947e-05 5.40927e-05 5.40902e-05 5.40869e-05 5.40827e-05 5.40775e-05 5.40708e-05 5.40624e-05 5.40519e-05 5.40389e-05 5.40228e-05 5.40029e-05 5.39785e-05 5.39488e-05 5.39127e-05 5.38691e-05 5.38167e-05 5.3754e-05 5.36794e-05 5.35909e-05 5.34867e-05 5.33645e-05 5.32218e-05 5.3056e-05 5.28644e-05 5.26439e-05 5.23916e-05 5.21043e-05 5.17785e-05 5.14111e-05 5.09988e-05 5.05382e-05 5.00263e-05 4.94601e-05 4.8837e-05 4.81546e-05 4.74109e-05 4.66044e-05 4.57341e-05 4.47994e-05 4.38006e-05 4.27386e-05 4.16148e-05 4.04314e-05 3.91915e-05 3.78986e-05 3.65573e-05 3.51723e-05 3.37494e-05 3.22947e-05 3.08147e-05 2.93164e-05 2.78071e-05 2.6294e-05 2.47846e-05 2.32863e-05 2.18064e-05 2.03516e-05 1.89287e-05 1.75438e-05 1.62024e-05 1.49096e-05 1.36697e-05 1.24863e-05 1.13625e-05 1.03004e-05 9.30164e-06 8.36699e-06 7.49664e-06 6.69013e-06 5.94644e-06 5.26404e-06 4.64094e-06 4.07478e-06 3.56288e-06 3.1023e-06 2.68993e-06 2.32253e-06 1.99679e-06 1.70941e-06 1.45711e-06 1.23669e-06 1.04507e-06 8.79293e-07 7.36582e-07 6.14326e-07 5.10106e-07 4.21694e-07 3.47061e-07 2.84365e-07 2.31956e-07 1.8836e-07 1.52271e-07 1.22543e-07 9.81735e-08 7.82951e-08 6.21588e-08 4.9124e-08 3.8646e-08 3.02642e-08 2.3592e-08 1.83064e-08 1.41396e-08 1.08706e-08 8.3182e-09 6.33469e-09 4.80029e-09 3.6184e-09 2.71149e-09 2.01758e-09 1.48727e-09 1.08122e-09 7.6805e-10 5.22484e-10 3.23863e-10 1.54798e-10 0 
0 2.06663e-10 4.32359e-10 6.97488e-10 1.02525e-09 1.4432e-09 1.98503e-09 2.69261e-09 3.6184e-09 4.82826e-09 6.4048e-09 8.4514e-09 1.10968e-08 1.45007e-08 1.88599e-08 2.44159e-08 3.14631e-08 4.03585e-08 5.15322e-08 6.54994e-08 8.28737e-08 1.04381e-07 1.30873e-07 1.63349e-07 2.02964e-07 2.51052e-07 3.09141e-07 3.78968e-07 4.62494e-07 5.61921e-07 6.79695e-07 8.18523e-07 9.81366e-07 1.17145e-06 1.39223e-06 1.64744e-06 1.94098e-06 2.27696e-06 2.65965e-06 3.09339e-06 3.5826e-06 4.13167e-06 4.7449e-06 5.42645e-06 6.1802e-06 7.00974e-06 7.9182e-06 8.90823e-06 9.98186e-06 1.11405e-05 1.23846e-05 1.37141e-05 1.51278e-05 1.66237e-05 1.81988e-05 1.98492e-05 2.15699e-05 2.33553e-05 2.51987e-05 2.70925e-05 2.90287e-05 3.09985e-05 3.29926e-05 3.50015e-05 3.70153e-05 3.90242e-05 4.10183e-05 4.29881e-05 4.49243e-05 4.68181e-05 4.86615e-05 5.04468e-05 5.21676e-05 5.3818e-05 5.53931e-05 5.6889e-05 5.83027e-05 5.96322e-05 6.08763e-05 6.20349e-05 6.31085e-05 6.40986e-05 6.5007e-05 6.58366e-05 6.65903e-05 6.72719e-05 6.78851e-05 6.84342e-05 6.89234e-05 6.93571e-05 6.97398e-05 7.00758e-05 7.03693e-05 7.06245e-05 7.08453e-05 7.10354e-05 7.11983e-05 7.13371e-05 7.14549e-05 7.15543e-05 7.16378e-05 7.17076e-05 7.17657e-05 7.18138e-05 7.18534e-05 7.18859e-05 7.19124e-05 7.19339e-05 7.19513e-05 7.19652e-05 7.19764e-05 7.19853e-05 7.19924e-05 7.19979e-05 7.20023e-05 7.20057e-05 7.20083e-05 7.20104e-05 7.20119e-05 7.20131e-05 7.2014e-05 7.20147e-05 7.20152e-05 7.20156e-05 7.20159e-05 7.20161e-05 7.20162e-05 7.20162e-05 7.20162e-05 7.20162e-05 7.20161e-05 7.20159e-05 7.20156e-05 7.20152e-05 7.20147e-05 7.2014e-05 7.20131e-05 7.20119e-05 7.20104e-05 7.20083e-05 7.20057e-05 7.20023e-05 7.19979e-05 7.19924e-05 7.19853e-05 7.19764e-05 7.19652e-05 7.19513e-05 7.19339e-05 7.19124e-05 7.18859e-05 7.18534e-05 7.18138e-05 7.17657e-05 7.17076e-05 7.16378e-05 7.15543e-05 7.14549e-05 7.13371e-05 7.11983e-05 7.10354e-05 7.08453e-05 7.06245e-05 7.03693e-05 7.00758e-05 6.97398e-05 6.93571e-05 6.89234e-05 6.84342e-05 6.78851e-05 6.72719e-05 6.65903e-05 6.58366e-05 6.5007e-05 6.40986e-05 6.31085e-05 6.20349e-05 6.08763e-05 5.96322e-05 5.83027e-05 5.6889e-05 5.53931e-05 5.3818e-05 5.21676e-05 5.04468e-05 4.86615e-05 4.68181e-05 4.49243e-05 4.29881e-05 4.10183e-05 3.90242e-05 3.70153e-05 3.50015e-05 3.29926e-05 3.09985e-05 2.90287e-05 2.70925e-05 2.51987e-05 2.33553e-05 2.15699e-05 1.98492e-05 1.81988e-05 1.66237e-05 1.51278e-05 1.37141e-05 1.23846e-05 1.11405e-05 9.98186e-06 8.90823e-06 7.9182e-06 7.00974e-06 6.1802e-06 5.42645e-06 4.7449e-06 4.13167e-06 3.5826e-06 3.09339e-06 2.65965e-06 2.27696e-06 1.94098e-06 1.64744e-06 1.39223e-06 1.17145e-06 9.81366e-07 8.18523e-07 6.79695e-07 5.61921e-07 4.62494e-07 3.78968e-07 3.09141e-07 2.51052e-07 2.02964e-07 1.63349e-07 1.30873e-07 1.04381e-07 8.28737e-08 6.54994e-08 5.15322e-08 4.03585e-08 3.14631e-08 2.44159e-08 1.88599e-08 1.45007e-08 1.10968e-08 8.4514e-09 6.4048e-09 4.82826e-09 3.6184e-09 2.69261e-09 1.98503e-09 1.4432e-09 1.02525e-09 6.97488e-10 4.32359e-10 2.06663e-10 0 