<?xml version="1.0"?>
<VTKFile type="ImageData" version="0.1" byte_order="LittleEndian">
  <ImageData WholeExtent="0 255 0 255 0 0" Origin="0 0 0" Spacing="1 1 1">
  <Piece Extent="0 255 0 255 0 0">
    <PointData>
      <DataArray type="Float32" Name="scalar_data" format="ascii" >0 0 0 0 0 0 0 0 0 0 0 0 0 0 0 0 0 0 0 0 0 0 0 0 0 0 0 0 0 0 0 0 0 0 0 0 0 0 0 0 0 0 0 0 0 0 0 0 0 0 0 0 0 0 0 0 0 0 0 0 0 0 0 0 0 0 0 0 0 0 0 0 0 0 0 0 0 0 0 0 0 0 0 0 0 0 0 0 0 0 0 0 0 0 0 0 0 0 0 0 0 0 0 0 0 0 0 0 0 0 0 0 0 0 0 0 0 0 0 0 0 0 0 0 0 0 0 0 0 0 0 0 0 0 0 0 0 0 0 0 0 0 0 0 0 0 0 0 0 0 0 0 0 0 0 0 0 0 0 0 0 0 0 0 0 0 0 0 0 0 0 0 0 0 0 0 0 0 0 0 0 0 0 0 0 0 0 0 0 0 0 0 0 0 0 0 0 0 0 0 0 0 0 0 0 0 0 0 0 0 0 0 0 0 0 0 0 0 0 0 0 0 0 0 0 0 0 0 0 0 0 0 0 0 0 0 0 0 0 0 0 0 0 0 0 0 0 0 0 0 0 0 0 0 0 0 
0 1.85187e-10 3.82168e-10 6.03291e-10 8.62015e-10 1.17351e-09 1.55529e-09 2.02791e-09 2.61574e-09 3.34779e-09 4.25867e-09 5.38966e-09 6.78986e-09 8.51746e-09 1.06412e-08 1.3242e-08 1.64143e-08 2.02684e-08 2.4932e-08 3.05521e-08 3.72974e-08 4.53603e-08 5.49588e-08 6.63389e-08 7.97759e-08 9.55771e-08 1.14082e-07 1.35666e-07 1.60737e-07 1.8974e-07 2.23154e-07 2.61493e-07 3.05303e-07 3.5516e-07 4.11667e-07 4.75447e-07 5.47144e-07 6.27409e-07 7.16899e-07 8.16265e-07 9.26147e-07 1.04716e-06 1.17988e-06 1.32486e-06 1.48256e-06 1.65342e-06 1.83776e-06 2.03583e-06 2.24779e-06 2.47368e-06 2.71343e-06 2.96685e-06 3.23361e-06 3.51328e-06 3.80528e-06 4.10889e-06 4.42328e-06 4.74752e-06 5.08052e-06 5.42114e-06 5.7681e-06 6.1201e-06 6.47572e-06 6.83354e-06 7.1921e-06 7.54993e-06 7.90555e-06 8.25754e-06 8.60451e-06 8.94512e-06 9.27813e-06 9.60236e-06 9.91676e-06 1.02204e-05 1.05124e-05 1.0792e-05 1.10588e-05 1.13122e-05 1.1552e-05 1.17779e-05 1.19898e-05 1.21879e-05 1.23722e-05 1.25431e-05 1.27008e-05 1.28458e-05 1.29785e-05 1.30995e-05 1.32094e-05 1.33087e-05 1.33982e-05 1.34785e-05 1.35502e-05 1.3614e-05 1.36705e-05 1.37203e-05 1.37642e-05 1.38025e-05 1.38359e-05 1.38649e-05 1.389e-05 1.39116e-05 1.39301e-05 1.39459e-05 1.39593e-05 1.39707e-05 1.39803e-05 1.39884e-05 1.39951e-05 1.40007e-05 1.40054e-05 1.40092e-05 1.40124e-05 1.4015e-05 1.40171e-05 1.40188e-05 1.40202e-05 1.40214e-05 1.40223e-05 1.4023e-05 1.40235e-05 1.4024e-05 1.40243e-05 1.40246e-05 1.40248e-05 1.40249e-05 1.4025e-05 1.40251e-05 1.40251e-05 1.4025e-05 1.40249e-05 1.40248e-05 1.40246e-05 1.40243e-05 1.4024e-05 1.40235e-05 1.4023e-05 1.40223e-05 1.40214e-05 1.40202e-05 1.40188e-05 1.40171e-05 1.4015e-05 1.40124e-05 1.40092e-05 1.40054e-05 1.40007e-05 1.39951e-05 1.39884e-05 1.39803e-05 1.39707e-05 1.39593e-05 1.39459e-05 1.39301e-05 1.39116e-05 1.389e-05 1.38649e-05 1.38359e-05 1.38025e-05 1.37642e-05 1.37203e-05 1.36705e-05 1.3614e-05 1.35502e-05 1.34785e-05 1.33982e-05 1.33087e-05 1.32094e-05 1.30995e-05 1.29785e-05 1.28458e-05 1.27008e-05 1.25431e-05 1.23722e-05 1.21879e-05 1.19898e-05 1.17779e-05 1.1552e-05 1.13122e-05 1.10588e-05 1.0792e-05 1.05124e-05 1.02204e-05 9.91676e-06 9.60236e-06 9.27813e-06 8.94512e-06 8.60451e-06 8.25754e-06 7.90555e-06 7.54993e-06 7.1921e-06 6.83354e-06 6.47572e-06 6.1201e-06 5.7681e-06 5.42114e-06 5.08052e-06 4.74752e-06 4.42328e-06 4.10889e-06 3.80528e-06 3.51328e-06 3.23361e-06 2.96685e-06 2.71343e-06 2.47368e-06 2.24779e-06 2.03583e-06 1.83776e-06 1.65342e-06 1.48256e-06 1.32486e-06 1.17988e-06 1.04716e-06 9.26147e-07 8.16265e-07 7.16899e-07 6.27409e-07 5.47144e-07 4.75447e-07 4.11667e-07 3.5516e-07 3.05303e-07 2.61493e-07 2.23154e-07 1.8974e-07 1.60737e-07 1.35666e-07 1.14082e-07 9.55771e-08 7.97759e-08 6.63389e-08 5.49588e-08 4.53603e-08 3.72974e-08 3.05521e-08 2.4932e-08 2.02684e-08 1.64143e-08 1.3242e-08 1.06412e-08 8.51746e-09 6.78986e-09 5.38966e-09 4.25867e-09 3.34779e-09 2.61574e-09 2.02791e-09 1.55529e-09 1.17351e-09 8.62015e-10 6.03291e-10 3.82168e-10 1.85187e-10 0 
0 3.82168e-10 7.88675e-10 1.24499e-09 1.7789e-09 2.42169e-09 3.20951e-09 4.18477e-09 5.39773e-09 6.90825e-09 8.78777e-09 1.11214e-08 1.40105e-08 1.75751e-08 2.1957e-08 2.7323e-08 3.38682e-08 4.182e-08 5.14417e-08 6.30369e-08 7.69533e-08 9.35879e-08 1.1339e-07 1.36868e-07 1.64589e-07 1.97187e-07 2.35363e-07 2.7989e-07 3.3161e-07 3.91441e-07 4.60372e-07 5.39461e-07 6.29837e-07 7.32685e-07 8.49248e-07 9.80817e-07 1.12871e-06 1.29428e-06 1.47888e-06 1.68385e-06 1.91051e-06 2.16013e-06 2.43391e-06 2.73295e-06 3.05825e-06 3.41067e-06 3.7909e-06 4.19946e-06 4.63667e-06 5.1026e-06 5.59712e-06 6.11984e-06 6.67008e-06 7.24693e-06 7.84921e-06 8.47544e-06 9.12393e-06 9.79269e-06 1.04796e-05 1.11821e-05 1.18978e-05 1.26238e-05 1.33573e-05 1.40953e-05 1.48349e-05 1.5573e-05 1.63065e-05 1.70325e-05 1.77481e-05 1.84507e-05 1.91376e-05 1.98063e-05 2.04548e-05 2.10811e-05 2.16833e-05 2.22602e-05 2.28104e-05 2.33331e-05 2.38277e-05 2.42936e-05 2.47308e-05 2.51394e-05 2.55196e-05 2.5872e-05 2.61973e-05 2.64964e-05 2.67701e-05 2.70197e-05 2.72464e-05 2.74514e-05 2.7636e-05 2.78015e-05 2.79494e-05 2.8081e-05 2.81976e-05 2.83004e-05 2.83908e-05 2.84699e-05 2.85388e-05 2.85986e-05 2.86504e-05 2.86949e-05 2.87331e-05 2.87657e-05 2.87934e-05 2.88169e-05 2.88367e-05 2.88533e-05 2.88672e-05 2.88788e-05 2.88884e-05 2.88964e-05 2.89029e-05 2.89083e-05 2.89127e-05 2.89162e-05 2.89191e-05 2.89214e-05 2.89233e-05 2.89247e-05 2.89259e-05 2.89268e-05 2.89275e-05 2.89281e-05 2.89285e-05 2.89288e-05 2.8929e-05 2.8929e-05 2.8929e-05 2.8929e-05 2.89288e-05 2.89285e-05 2.89281e-05 2.89275e-05 2.89268e-05 2.89259e-05 2.89247e-05 2.89233e-05 2.89214e-05 2.89191e-05 2.89162e-05 2.89127e-05 2.89083e-05 2.89029e-05 2.88964e-05 2.88884e-05 2.88788e-05 2.88672e-05 2.88533e-05 2.88367e-05 2.88169e-05 2.87934e-05 2.87657e-05 2.87331e-05 2.86949e-05 2.86504e-05 2.85986e-05 2.85388e-05 2.84699e-05 2.83908e-05 2.83004e-05 2.81976e-05 2.8081e-05 2.79494e-05 2.78015e-05 2.7636e-05 2.74514e-05 2.72464e-05 2.70197e-05 2.67701e-05 2.64964e-05 2.61973e-05 2.5872e-05 2.55196e-05 2.51394e-05 2.47308e-05 2.42936e-05 2.38277e-05 2.33331e-05 2.28104e-05 2.22602e-05 2.16833e-05 2.10811e-05 2.04548e-05 1.98063e-05 1.91376e-05 1.84507e-05 1.77481e-05 1.70325e-05 1.63065e-05 1.5573e-05 1.48349e-05 1.40953e-05 1.33573e-05 1.26238e-05 1.18978e-05 1.11821e-05 1.04796e-05 9.79269e-06 9.12393e-06 8.47544e-06 7.84921e-06 7.24693e-06 6.67008e-06 6.11984e-06 5.59712e-06 5.1026e-06 4.63667e-06 4.19946e-06 3.7909e-06 3.41067e-06 3.05825e-06 2.73295e-06 2.43391e-06 2.16013e-06 1.91051e-06 1.68385e-06 1.47888e-06 1.29428e-06 1.12871e-06 9.80817e-07 8.49248e-07 7.32685e-07 6.29837e-07 5.39461e-07 4.60372e-07 3.91441e-07 3.3161e-07 2.7989e-07 2.35363e-07 1.97187e-07 1.64589e-07 1.36868e-07 1.1339e-07 9.35879e-08 7.69533e-08 6.30369e-08 5.14417e-08 4.182e-08 3.38682e-08 2.7323e-08 2.1957e-08 1.75751e-08 1.40105e-08 1.11214e-08 8.78777e-09 6.90825e-09 5.39773e-09 4.18477e-09 3.20951e-09 2.42169e-09 1.7789e-09 1.24499e-09 7.88675e-10 3.82168e-10 0 
0 6.03291e-10 1.24499e-09 1.96531e-09 2.80808e-09 3.8227e-09 5.0662e-09 6.60551e-09 8.51994e-09 1.0904e-08 1.38703e-08 1.75532e-08 2.21127e-08 2.7738e-08 3.46531e-08 4.3121e-08 5.34496e-08 6.59975e-08 8.11802e-08 9.94765e-08 1.21435e-07 1.47683e-07 1.78928e-07 2.15972e-07 2.5971e-07 3.11142e-07 3.71374e-07 4.41624e-07 5.23223e-07 6.17616e-07 7.26365e-07 8.51139e-07 9.93715e-07 1.15597e-06 1.33985e-06 1.54741e-06 1.78072e-06 2.04191e-06 2.33311e-06 2.65644e-06 3.01399e-06 3.40775e-06 3.83961e-06 4.31132e-06 4.82445e-06 5.38035e-06 5.98012e-06 6.62457e-06 7.31419e-06 8.04913e-06 8.82915e-06 9.65364e-06 1.05215e-05 1.14314e-05 1.23814e-05 1.33691e-05 1.4392e-05 1.54468e-05 1.65302e-05 1.76383e-05 1.87671e-05 1.99122e-05 2.10692e-05 2.22333e-05 2.33998e-05 2.45638e-05 2.57208e-05 2.68659e-05 2.79947e-05 2.91028e-05 3.01862e-05 3.1241e-05 3.22639e-05 3.32516e-05 3.42016e-05 3.51115e-05 3.59794e-05 3.68039e-05 3.75839e-05 3.83188e-05 3.90084e-05 3.96529e-05 4.02527e-05 4.08086e-05 4.13217e-05 4.17934e-05 4.22253e-05 4.2619e-05 4.29766e-05 4.32999e-05 4.35911e-05 4.38523e-05 4.40856e-05 4.42932e-05 4.4477e-05 4.46393e-05 4.47819e-05 4.49067e-05 4.50154e-05 4.51098e-05 4.51914e-05 4.52616e-05 4.53219e-05 4.53733e-05 4.5417e-05 4.54541e-05 4.54853e-05 4.55116e-05 4.55335e-05 4.55518e-05 4.5567e-05 4.55796e-05 4.55899e-05 4.55983e-05 4.56052e-05 4.56109e-05 4.56154e-05 4.5619e-05 4.5622e-05 4.56243e-05 4.56262e-05 4.56276e-05 4.56287e-05 4.56296e-05 4.56302e-05 4.56307e-05 4.5631e-05 4.56311e-05 4.56311e-05 4.5631e-05 4.56307e-05 4.56302e-05 4.56296e-05 4.56287e-05 4.56276e-05 4.56262e-05 4.56243e-05 4.5622e-05 4.5619e-05 4.56154e-05 4.56109e-05 4.56052e-05 4.55983e-05 4.55899e-05 4.55796e-05 4.5567e-05 4.55518e-05 4.55335e-05 4.55116e-05 4.54853e-05 4.54541e-05 4.5417e-05 4.53733e-05 4.53219e-05 4.52616e-05 4.51914e-05 4.51098e-05 4.50154e-05 4.49067e-05 4.47819e-05 4.46393e-05 4.4477e-05 4.42932e-05 4.40856e-05 4.38523e-05 4.35911e-05 4.32999e-05 4.29766e-05 4.2619e-05 4.22253e-05 4.17934e-05 4.13217e-05 4.08086e-05 4.02527e-05 3.96529e-05 3.90084e-05 3.83188e-05 3.75839e-05 3.68039e-05 3.59794e-05 3.51115e-05 3.42016e-05 3.32516e-05 3.22639e-05 3.1241e-05 3.01862e-05 2.91028e-05 2.79947e-05 2.68659e-05 2.57208e-05 2.45638e-05 2.33998e-05 2.22333e-05 2.10692e-05 1.99122e-05 1.87671e-05 1.76383e-05 1.65302e-05 1.54468e-05 1.4392e-05 1.33691e-05 1.23814e-05 1.14314e-05 1.05215e-05 9.65364e-06 8.82915e-06 8.04913e-06 7.31419e-06 6.62457e-06 5.98012e-06 5.38035e-06 4.82445e-06 4.31132e-06 3.83961e-06 3.40775e-06 3.01399e-06 2.65644e-06 2.33311e-06 2.04191e-06 1.78072e-06 1.54741e-06 1.33985e-06 1.15597e-06 9.93715e-07 8.51139e-07 7.26365e-07 6.17616e-07 5.23223e-07 4.41624e-07 3.71374e-07 3.11142e-07 2.5971e-07 2.15972e-07 1.78928e-07 1.47683e-07 1.21435e-07 9.94765e-08 8.11802e-08 6.59975e-08 5.34496e-08 4.3121e-08 3.46531e-08 2.7738e-08 2.21127e-08 1.75532e-08 1.38703e-08 1.0904e-08 8.51994e-09 6.60551e-09 5.0662e-09 3.8227e-09 2.80808e-09 1.96531e-09 1.24499e-09 6.03291e-10 0 
0 8.62015e-10 1.7789e-09 2.80808e-09 4.01218e-09 5.46174e-09 7.23823e-09 9.43723e-09 1.2172e-08 1.55775e-08 1.98147e-08 2.50753e-08 3.15877e-08 3.96224e-08 4.94988e-08 6.15927e-08 7.63437e-08 9.42639e-08 1.15946e-07 1.42075e-07 1.73432e-07 2.10913e-07 2.55531e-07 3.08426e-07 3.70879e-07 4.44317e-07 5.30319e-07 6.30621e-07 7.47126e-07 8.81896e-07 1.03716e-06 1.2153e-06 1.41885e-06 1.65048e-06 1.913e-06 2.20931e-06 2.54237e-06 2.91523e-06 3.33093e-06 3.7925e-06 4.30289e-06 4.86496e-06 5.48142e-06 6.15476e-06 6.88721e-06 7.68071e-06 8.53681e-06 9.45668e-06 1.0441e-05 1.149e-05 1.26034e-05 1.37802e-05 1.5019e-05 1.63177e-05 1.76735e-05 1.90834e-05 2.05432e-05 2.20488e-05 2.35951e-05 2.51766e-05 2.67877e-05 2.84221e-05 3.00734e-05 3.17348e-05 3.33997e-05 3.50612e-05 3.67125e-05 3.83469e-05 3.99579e-05 4.15395e-05 4.30858e-05 4.45913e-05 4.60512e-05 4.7461e-05 4.88169e-05 5.01156e-05 5.13544e-05 5.25312e-05 5.36445e-05 5.46936e-05 5.56779e-05 5.65978e-05 5.74539e-05 5.82474e-05 5.89798e-05 5.96532e-05 6.02696e-05 6.08317e-05 6.13421e-05 6.18037e-05 6.22193e-05 6.25922e-05 6.29253e-05 6.32216e-05 6.34841e-05 6.37157e-05 6.39193e-05 6.40974e-05 6.42527e-05 6.43875e-05 6.4504e-05 6.46043e-05 6.46903e-05 6.47637e-05 6.48261e-05 6.4879e-05 6.49237e-05 6.49611e-05 6.49925e-05 6.50186e-05 6.50403e-05 6.50582e-05 6.5073e-05 6.5085e-05 6.50949e-05 6.51029e-05 6.51094e-05 6.51146e-05 6.51188e-05 6.51221e-05 6.51248e-05 6.51268e-05 6.51285e-05 6.51297e-05 6.51306e-05 6.51312e-05 6.51316e-05 6.51318e-05 6.51318e-05 6.51316e-05 6.51312e-05 6.51306e-05 6.51297e-05 6.51285e-05 6.51268e-05 6.51248e-05 6.51221e-05 6.51188e-05 6.51146e-05 6.51094e-05 6.51029e-05 6.50949e-05 6.5085e-05 6.5073e-05 6.50582e-05 6.50403e-05 6.50186e-05 6.49925e-05 6.49611e-05 6.49237e-05 6.4879e-05 6.48261e-05 6.47637e-05 6.46903e-05 6.46043e-05 6.4504e-05 6.43875e-05 6.42527e-05 6.40974e-05 6.39193e-05 6.37157e-05 6.34841e-05 6.32216e-05 6.29253e-05 6.25922e-05 6.22193e-05 6.18037e-05 6.13421e-05 6.08317e-05 6.02696e-05 5.96532e-05 5.89798e-05 5.82474e-05 5.74539e-05 5.65978e-05 5.56779e-05 5.46936e-05 5.36445e-05 5.25312e-05 5.13544e-05 5.01156e-05 4.88169e-05 4.7461e-05 4.60512e-05 4.45913e-05 4.30858e-05 4.15395e-05 3.99579e-05 3.83469e-05 3.67125e-05 3.50612e-05 3.33997e-05 3.17348e-05 3.00734e-05 2.84221e-05 2.67877e-05 2.51766e-05 2.35951e-05 2.20488e-05 2.05432e-05 1.90834e-05 1.76735e-05 1.63177e-05 1.5019e-05 1.37802e-05 1.26034e-05 1.149e-05 1.0441e-05 9.45668e-06 8.53681e-06 7.68071e-06 6.88721e-06 6.15476e-06 5.48142e-06 4.86496e-06 4.30289e-06 3.7925e-06 3.33093e-06 2.91523e-06 2.54237e-06 2.20931e-06 1.913e-06 1.65048e-06 1.41885e-06 1.2153e-06 1.03716e-06 8.81896e-07 7.47126e-07 6.30621e-07 5.30319e-07 4.44317e-07 3.70879e-07 3.08426e-07 2.55531e-07 2.10913e-07 1.73432e-07 1.42075e-07 1.15946e-07 9.42639e-08 7.63437e-08 6.15927e-08 4.94988e-08 3.96224e-08 3.15877e-08 2.50753e-08 1.98147e-08 1.55775e-08 1.2172e-08 9.43723e-09 7.23823e-09 5.46174e-09 4.01218e-09 2.80808e-09 1.7789e-09 8.62015e-10 0 
0 1.17351e-09 2.42169e-09 3.8227e-09 5.46174e-09 7.43482e-09 9.85279e-09 1.28457e-08 1.65677e-08 2.12023e-08 2.69685e-08 3.41273e-08 4.2989e-08 5.39219e-08 6.73605e-08 8.38157e-08 1.03886e-07 1.28267e-07 1.57765e-07 1.93312e-07 2.35972e-07 2.8696e-07 3.47654e-07 4.19608e-07 5.04561e-07 6.04453e-07 7.21431e-07 8.57859e-07 1.01632e-06 1.19962e-06 1.41078e-06 1.65306e-06 1.92989e-06 2.24491e-06 2.60192e-06 3.00487e-06 3.45781e-06 3.96485e-06 4.53013e-06 5.15778e-06 5.85181e-06 6.61611e-06 7.45435e-06 8.36991e-06 9.36584e-06 1.04448e-05 1.16088e-05 1.28595e-05 1.41979e-05 1.56242e-05 1.71379e-05 1.87379e-05 2.04222e-05 2.21879e-05 2.40313e-05 2.59481e-05 2.79329e-05 2.99798e-05 3.2082e-05 3.42323e-05 3.64226e-05 3.86447e-05 4.08896e-05 4.31485e-05 4.54119e-05 4.76708e-05 4.99157e-05 5.21378e-05 5.43281e-05 5.64784e-05 5.85806e-05 6.06275e-05 6.26123e-05 6.45291e-05 6.63725e-05 6.81382e-05 6.98224e-05 7.14225e-05 7.29362e-05 7.43625e-05 7.57009e-05 7.69516e-05 7.81156e-05 7.91945e-05 8.01905e-05 8.1106e-05 8.19443e-05 8.27086e-05 8.34026e-05 8.40302e-05 8.45955e-05 8.51026e-05 8.55555e-05 8.59585e-05 8.63155e-05 8.66305e-05 8.69073e-05 8.71496e-05 8.73608e-05 8.75441e-05 8.77025e-05 8.78389e-05 8.79559e-05 8.80558e-05 8.81408e-05 8.82127e-05 8.82734e-05 8.83244e-05 8.83671e-05 8.84026e-05 8.84321e-05 8.84565e-05 8.84765e-05 8.8493e-05 8.85064e-05 8.85173e-05 8.85261e-05 8.85332e-05 8.85389e-05 8.85435e-05 8.85471e-05 8.85499e-05 8.85521e-05 8.85537e-05 8.8555e-05 8.85558e-05 8.85564e-05 8.85567e-05 8.85567e-05 8.85564e-05 8.85558e-05 8.8555e-05 8.85537e-05 8.85521e-05 8.85499e-05 8.85471e-05 8.85435e-05 8.85389e-05 8.85332e-05 8.85261e-05 8.85173e-05 8.85064e-05 8.8493e-05 8.84765e-05 8.84565e-05 8.84321e-05 8.84026e-05 8.83671e-05 8.83244e-05 8.82734e-05 8.82127e-05 8.81408e-05 8.80558e-05 8.79559e-05 8.78389e-05 8.77025e-05 8.75441e-05 8.73608e-05 8.71496e-05 8.69073e-05 8.66305e-05 8.63155e-05 8.59585e-05 8.55555e-05 8.51026e-05 8.45955e-05 8.40302e-05 8.34026e-05 8.27086e-05 8.19443e-05 8.1106e-05 8.01905e-05 7.91945e-05 7.81156e-05 7.69516e-05 7.57009e-05 7.43625e-05 7.29362e-05 7.14225e-05 6.98224e-05 6.81382e-05 6.63725e-05 6.45291e-05 6.26123e-05 6.06275e-05 5.85806e-05 5.64784e-05 5.43281e-05 5.21378e-05 4.99157e-05 4.76708e-05 4.54119e-05 4.31485e-05 4.08896e-05 3.86447e-05 3.64226e-05 3.42323e-05 3.2082e-05 2.99798e-05 2.79329e-05 2.59481e-05 2.40313e-05 2.21879e-05 2.04222e-05 1.87379e-05 1.71379e-05 1.56242e-05 1.41979e-05 1.28595e-05 1.16088e-05 1.04448e-05 9.36584e-06 8.36991e-06 7.45435e-06 6.61611e-06 5.85181e-06 5.15778e-06 4.53013e-06 3.96485e-06 3.45781e-06 3.00487e-06 2.60192e-06 2.24491e-06 1.92989e-06 1.65306e-06 1.41078e-06 1.19962e-06 1.01632e-06 8.57859e-07 7.21431e-07 6.04453e-07 5.04561e-07 4.19608e-07 3.47654e-07 2.8696e-07 2.35972e-07 1.93312e-07 1.57765e-07 1.28267e-07 1.03886e-07 8.38157e-08 6.73605e-08 5.39219e-08 4.2989e-08 3.41273e-08 2.69685e-08 2.12023e-08 1.65677e-08 1.28457e-08 9.85279e-09 7.43482e-09 5.46174e-09 3.8227e-09 2.42169e-09 1.17351e-09 0 
0 1.55529e-09 3.20951e-09 5.0662e-09 7.23823e-09 9.85279e-09 1.30567e-08 1.70222e-08 2.19535e-08 2.80937e-08 3.57327e-08 4.52162e-08 5.69553e-08 7.14373e-08 8.92378e-08 1.11033e-07 1.37616e-07 1.69907e-07 2.08975e-07 2.5605e-07 3.12545e-07 3.80066e-07 4.60439e-07 5.55718e-07 6.68208e-07 8.00475e-07 9.55361e-07 1.13599e-06 1.34579e-06 1.58847e-06 1.86804e-06 2.18878e-06 2.55527e-06 2.9723e-06 3.44491e-06 3.97832e-06 4.57789e-06 5.24906e-06 5.99732e-06 6.82811e-06 7.74675e-06 8.75839e-06 9.86787e-06 1.10797e-05 1.23978e-05 1.38258e-05 1.53664e-05 1.70217e-05 1.8793e-05 2.06807e-05 2.2684e-05 2.48016e-05 2.70305e-05 2.93672e-05 3.18069e-05 3.43435e-05 3.69702e-05 3.96789e-05 4.2461e-05 4.53065e-05 4.82052e-05 5.11457e-05 5.41166e-05 5.71058e-05 6.01012e-05 6.30904e-05 6.60613e-05 6.90019e-05 7.19005e-05 7.4746e-05 7.75281e-05 8.02369e-05 8.28636e-05 8.54002e-05 8.78398e-05 9.01765e-05 9.24055e-05 9.4523e-05 9.65264e-05 9.8414e-05 0.000100185 0.000101841 0.000103381 0.000104809 0.000106127 0.000107339 0.000108449 0.00010946 0.000110379 0.00011121 0.000111958 0.000112629 0.000113229 0.000113762 0.000114235 0.000114652 0.000115018 0.000115339 0.000115619 0.000115861 0.000116071 0.000116252 0.000116407 0.000116539 0.000116651 0.000116747 0.000116827 0.000116894 0.000116951 0.000116998 0.000117037 0.000117069 0.000117096 0.000117118 0.000117135 0.00011715 0.000117162 0.000117171 0.000117179 0.000117185 0.000117189 0.000117193 0.000117196 0.000117198 0.0001172 0.000117201 0.000117202 0.000117202 0.000117202 0.000117202 0.000117201 0.0001172 0.000117198 0.000117196 0.000117193 0.000117189 0.000117185 0.000117179 0.000117171 0.000117162 0.00011715 0.000117135 0.000117118 0.000117096 0.000117069 0.000117037 0.000116998 0.000116951 0.000116894 0.000116827 0.000116747 0.000116651 0.000116539 0.000116407 0.000116252 0.000116071 0.000115861 0.000115619 0.000115339 0.000115018 0.000114652 0.000114235 0.000113762 0.000113229 0.000112629 0.000111958 0.00011121 0.000110379 0.00010946 0.000108449 0.000107339 0.000106127 0.000104809 0.000103381 0.000101841 0.000100185 9.8414e-05 9.65264e-05 9.4523e-05 9.24055e-05 9.01765e-05 8.78398e-05 8.54002e-05 8.28636e-05 8.02369e-05 7.75281e-05 7.4746e-05 7.19005e-05 6.90019e-05 6.60613e-05 6.30904e-05 6.01012e-05 5.71058e-05 5.41166e-05 5.11457e-05 4.82052e-05 4.53065e-05 4.2461e-05 3.96789e-05 3.69702e-05 3.43435e-05 3.18069e-05 2.93672e-05 2.70305e-05 2.48016e-05 2.2684e-05 2.06807e-05 1.8793e-05 1.70217e-05 1.53664e-05 1.38258e-05 1.23978e-05 1.10797e-05 9.86787e-06 8.75839e-06 7.74675e-06 6.82811e-06 5.99732e-06 5.24906e-06 4.57789e-06 3.97832e-06 3.44491e-06 2.9723e-06 2.55527e-06 2.18878e-06 1.86804e-06 1.58847e-06 1.34579e-06 1.13599e-06 9.55361e-07 8.00475e-07 6.68208e-07 5.55718e-07 4.60439e-07 3.80066e-07 3.12545e-07 2.5605e-07 2.08975e-07 1.69907e-07 1.37616e-07 1.11033e-07 8.92378e-08 7.14373e-08 5.69553e-08 4.52162e-08 3.57327e-08 2.80937e-08 2.19535e-08 1.70222e-08 1.30567e-08 9.85279e-09 7.23823e-09 5.0662e-09 3.20951e-09 1.55529e-09 0 
0 2.02791e-09 4.18477e-09 6.60551e-09 9.43723e-09 1.28457e-08 1.70222e-08 2.21913e-08 2.8619e-08 3.66219e-08 4.65779e-08 5.89373e-08 7.42356e-08 9.31077e-08 1.16303e-07 1.44704e-07 1.7934e-07 2.21413e-07 2.72314e-07 3.33646e-07 4.07246e-07 4.95209e-07 5.99911e-07 7.24027e-07 8.70557e-07 1.04284e-06 1.24459e-06 1.47986e-06 1.75312e-06 2.06919e-06 2.43329e-06 2.85101e-06 3.32829e-06 3.87138e-06 4.48683e-06 5.18145e-06 5.9622e-06 6.83618e-06 7.81051e-06 8.89229e-06 1.00884e-05 1.14056e-05 1.28502e-05 1.4428e-05 1.61442e-05 1.80034e-05 2.00092e-05 2.21643e-05 2.44704e-05 2.69279e-05 2.95361e-05 3.22928e-05 3.51946e-05 3.82366e-05 4.14126e-05 4.47148e-05 4.81343e-05 5.16606e-05 5.52822e-05 5.89866e-05 6.276e-05 6.65879e-05 7.04554e-05 7.43467e-05 7.8246e-05 8.21373e-05 8.60048e-05 8.98327e-05 9.36061e-05 9.73104e-05 0.000100932 0.000104458 0.000107878 0.00011118 0.000114356 0.000117398 0.0001203 0.000123057 0.000125665 0.000128122 0.000130428 0.000132583 0.000134589 0.000136448 0.000138165 0.000139742 0.000141187 0.000142504 0.0001437 0.000144782 0.000145757 0.00014663 0.000147411 0.000148106 0.000148721 0.000149264 0.000149742 0.000150159 0.000150523 0.00015084 0.000151113 0.000151348 0.00015155 0.000151722 0.000151869 0.000151993 0.000152097 0.000152185 0.000152259 0.00015232 0.000152371 0.000152413 0.000152448 0.000152476 0.000152499 0.000152518 0.000152533 0.000152546 0.000152556 0.000152563 0.00015257 0.000152575 0.000152578 0.000152581 0.000152583 0.000152585 0.000152586 0.000152586 0.000152586 0.000152586 0.000152585 0.000152583 0.000152581 0.000152578 0.000152575 0.00015257 0.000152563 0.000152556 0.000152546 0.000152533 0.000152518 0.000152499 0.000152476 0.000152448 0.000152413 0.000152371 0.00015232 0.000152259 0.000152185 0.000152097 0.000151993 0.000151869 0.000151722 0.00015155 0.000151348 0.000151113 0.00015084 0.000150523 0.000150159 0.000149742 0.000149264 0.000148721 0.000148106 0.000147411 0.00014663 0.000145757 0.000144782 0.0001437 0.000142504 0.000141187 0.000139742 0.000138165 0.000136448 0.000134589 0.000132583 0.000130428 0.000128122 0.000125665 0.000123057 0.0001203 0.000117398 0.000114356 0.00011118 0.000107878 0.000104458 0.000100932 9.73104e-05 9.36061e-05 8.98327e-05 8.60048e-05 8.21373e-05 7.8246e-05 7.43467e-05 7.04554e-05 6.65879e-05 6.276e-05 5.89866e-05 5.52822e-05 5.16606e-05 4.81343e-05 4.47148e-05 4.14126e-05 3.82366e-05 3.51946e-05 3.22928e-05 2.95361e-05 2.69279e-05 2.44704e-05 2.21643e-05 2.00092e-05 1.80034e-05 1.61442e-05 1.4428e-05 1.28502e-05 1.14056e-05 1.00884e-05 8.89229e-06 7.81051e-06 6.83618e-06 5.9622e-06 5.18145e-06 4.48683e-06 3.87138e-06 3.32829e-06 2.85101e-06 2.43329e-06 2.06919e-06 1.75312e-06 1.47986e-06 1.24459e-06 1.04284e-06 8.70557e-07 7.24027e-07 5.99911e-07 4.95209e-07 4.07246e-07 3.33646e-07 2.72314e-07 2.21413e-07 1.7934e-07 1.44704e-07 1.16303e-07 9.31077e-08 7.42356e-08 5.89373e-08 4.65779e-08 3.66219e-08 2.8619e-08 2.21913e-08 1.70222e-08 1.28457e-08 9.43723e-09 6.60551e-09 4.18477e-09 2.02791e-09 0 
0 2.61574e-09 5.39773e-09 8.51994e-09 1.2172e-08 1.65677e-08 2.19535e-08 2.8619e-08 3.69068e-08 4.72253e-08 6.00614e-08 7.59953e-08 9.57172e-08 1.20045e-07 1.49945e-07 1.86553e-07 2.31197e-07 2.85425e-07 3.51027e-07 4.30071e-07 5.24922e-07 6.3828e-07 7.73203e-07 9.33139e-07 1.12195e-06 1.34395e-06 1.60389e-06 1.90702e-06 2.25908e-06 2.66629e-06 3.13537e-06 3.67351e-06 4.28836e-06 4.98798e-06 5.78079e-06 6.67556e-06 7.68126e-06 8.80701e-06 1.0062e-05 1.14554e-05 1.2996e-05 1.46925e-05 1.65531e-05 1.85852e-05 2.07955e-05 2.31899e-05 2.57731e-05 2.85486e-05 3.15184e-05 3.46832e-05 3.8042e-05 4.15921e-05 4.53289e-05 4.92463e-05 5.33362e-05 5.75886e-05 6.19919e-05 6.65328e-05 7.11965e-05 7.59666e-05 8.08255e-05 8.57548e-05 9.07349e-05 9.57457e-05 0.000100767 0.000105778 0.000110758 0.000115687 0.000120546 0.000125316 0.00012998 0.000134521 0.000138924 0.000143176 0.000147266 0.000151184 0.000154921 0.000158471 0.000161829 0.000164994 0.000167964 0.000170739 0.000173323 0.000175717 0.000177927 0.000179959 0.00018182 0.000183517 0.000185057 0.000186451 0.000187706 0.000188831 0.000189837 0.000190732 0.000191525 0.000192224 0.000192839 0.000193377 0.000193846 0.000194253 0.000194606 0.000194909 0.000195169 0.000195391 0.000195579 0.000195739 0.000195874 0.000195988 0.000196082 0.000196162 0.000196227 0.000196281 0.000196326 0.000196363 0.000196392 0.000196417 0.000196436 0.000196452 0.000196465 0.000196475 0.000196483 0.000196489 0.000196494 0.000196498 0.000196501 0.000196502 0.000196504 0.000196504 0.000196504 0.000196504 0.000196502 0.000196501 0.000196498 0.000196494 0.000196489 0.000196483 0.000196475 0.000196465 0.000196452 0.000196436 0.000196417 0.000196392 0.000196363 0.000196326 0.000196281 0.000196227 0.000196162 0.000196082 0.000195988 0.000195874 0.000195739 0.000195579 0.000195391 0.000195169 0.000194909 0.000194606 0.000194253 0.000193846 0.000193377 0.000192839 0.000192224 0.000191525 0.000190732 0.000189837 0.000188831 0.000187706 0.000186451 0.000185057 0.000183517 0.00018182 0.000179959 0.000177927 0.000175717 0.000173323 0.000170739 0.000167964 0.000164994 0.000161829 0.000158471 0.000154921 0.000151184 0.000147266 0.000143176 0.000138924 0.000134521 0.00012998 0.000125316 0.000120546 0.000115687 0.000110758 0.000105778 0.000100767 9.57457e-05 9.07349e-05 8.57548e-05 8.08255e-05 7.59666e-05 7.11965e-05 6.65328e-05 6.19919e-05 5.75886e-05 5.33362e-05 4.92463e-05 4.53289e-05 4.15921e-05 3.8042e-05 3.46832e-05 3.15184e-05 2.85486e-05 2.57731e-05 2.31899e-05 2.07955e-05 1.85852e-05 1.65531e-05 1.46925e-05 1.2996e-05 1.14554e-05 1.0062e-05 8.80701e-06 7.68126e-06 6.67556e-06 5.78079e-06 4.98798e-06 4.28836e-06 3.67351e-06 3.13537e-06 2.66629e-06 2.25908e-06 1.90702e-06 1.60389e-06 1.34395e-06 1.12195e-06 9.33139e-07 7.73203e-07 6.3828e-07 5.24922e-07 4.30071e-07 3.51027e-07 2.85425e-07 2.31197e-07 1.86553e-07 1.49945e-07 1.20045e-07 9.57172e-08 7.59953e-08 6.00614e-08 4.72253e-08 3.69068e-08 2.8619e-08 2.19535e-08 1.65677e-08 1.2172e-08 8.51994e-09 5.39773e-09 2.61574e-09 0 
0 3.34779e-09 6.90825e-09 1.0904e-08 1.55775e-08 2.12023e-08 2.80937e-08 3.66219e-08 4.72253e-08 6.0426e-08 7.68467e-08 9.72293e-08 1.22456e-07 1.53574e-07 1.91817e-07 2.38637e-07 2.95733e-07 3.65082e-07 4.48976e-07 5.50054e-07 6.71342e-07 8.16288e-07 9.88803e-07 1.19329e-06 1.4347e-06 1.71851e-06 2.05083e-06 2.43836e-06 2.88842e-06 3.40897e-06 4.00858e-06 4.69646e-06 5.48236e-06 6.37659e-06 7.38993e-06 8.53354e-06 9.8189e-06 1.12577e-05 1.28616e-05 1.46423e-05 1.66112e-05 1.87792e-05 2.11569e-05 2.37536e-05 2.65782e-05 2.96379e-05 3.29388e-05 3.64853e-05 4.02801e-05 4.4324e-05 4.86157e-05 5.31517e-05 5.79264e-05 6.29318e-05 6.81574e-05 7.35906e-05 7.92167e-05 8.50185e-05 9.09771e-05 9.70717e-05 0.00010328 0.000109578 0.00011594 0.000122343 0.000128758 0.00013516 0.000141523 0.000147821 0.000154029 0.000160123 0.000166082 0.000171884 0.00017751 0.000182943 0.000188169 0.000193174 0.000197949 0.000202485 0.000206776 0.00021082 0.000214615 0.000218162 0.000221462 0.000224522 0.000227347 0.000229943 0.000232321 0.000234489 0.000236458 0.000238239 0.000239843 0.000241281 0.000242567 0.00024371 0.000244724 0.000245618 0.000246404 0.000247092 0.000247691 0.000248212 0.000248662 0.00024905 0.000249382 0.000249666 0.000249907 0.000250112 0.000250284 0.000250429 0.00025055 0.000250651 0.000250735 0.000250805 0.000250862 0.000250908 0.000250947 0.000250978 0.000251003 0.000251023 0.000251039 0.000251052 0.000251062 0.00025107 0.000251077 0.000251081 0.000251085 0.000251087 0.000251089 0.00025109 0.00025109 0.000251089 0.000251087 0.000251085 0.000251081 0.000251077 0.00025107 0.000251062 0.000251052 0.000251039 0.000251023 0.000251003 0.000250978 0.000250947 0.000250908 0.000250862 0.000250805 0.000250735 0.000250651 0.00025055 0.000250429 0.000250284 0.000250112 0.000249907 0.000249666 0.000249382 0.00024905 0.000248662 0.000248212 0.000247691 0.000247092 0.000246404 0.000245618 0.000244724 0.00024371 0.000242567 0.000241281 0.000239843 0.000238239 0.000236458 0.000234489 0.000232321 0.000229943 0.000227347 0.000224522 0.000221462 0.000218162 0.000214615 0.00021082 0.000206776 0.000202485 0.000197949 0.000193174 0.000188169 0.000182943 0.00017751 0.000171884 0.000166082 0.000160123 0.000154029 0.000147821 0.000141523 0.00013516 0.000128758 0.000122343 0.00011594 0.000109578 0.00010328 9.70717e-05 9.09771e-05 8.50185e-05 7.92167e-05 7.35906e-05 6.81574e-05 6.29318e-05 5.79264e-05 5.31517e-05 4.86157e-05 4.4324e-05 4.02801e-05 3.64853e-05 3.29388e-05 2.96379e-05 2.65782e-05 2.37536e-05 2.11569e-05 1.87792e-05 1.66112e-05 1.46423e-05 1.28616e-05 1.12577e-05 9.8189e-06 8.53354e-06 7.38993e-06 6.37659e-06 5.48236e-06 4.69646e-06 4.00858e-06 3.40897e-06 2.88842e-06 2.43836e-06 2.05083e-06 1.71851e-06 1.4347e-06 1.19329e-06 9.88803e-07 8.16288e-07 6.71342e-07 5.50054e-07 4.48976e-07 3.65082e-07 2.95733e-07 2.38637e-07 1.91817e-07 1.53574e-07 1.22456e-07 9.72293e-08 7.68467e-08 6.0426e-08 4.72253e-08 3.66219e-08 2.80937e-08 2.12023e-08 1.55775e-08 1.0904e-08 6.90825e-09 3.34779e-09 0 